/*--------------------------------*- C++ -*----------------------------------*\
  =========                 |
  \\      /  F ield         | OpenFOAM: The Open Source CFD Toolbox
   \\    /   O peration     | Website:  https://openfoam.org
    \\  /    A nd           | Version:  dev
     \\/     M anipulation  |
\*---------------------------------------------------------------------------*/
FoamFile
{
    version     2.0;
    format      ascii;
    class       volVectorField;
    location    "40";
    object      D;
}
// * * * * * * * * * * * * * * * * * * * * * * * * * * * * * * * * * * * * * //

dimensions      [0 1 0 0 0 0 0];

internalField   nonuniform List<vector> 
1000
(
(0.00117486 0.00127348 0)
(0.00128682 0.00139435 0)
(0.00139876 0.00151527 0)
(0.00151068 0.00163622 0)
(0.0016226 0.00175719 0)
(0.00173451 0.00187818 0)
(0.00184641 0.00199918 0)
(0.00195832 0.00212019 0)
(0.00207023 0.0022412 0)
(0.00218213 0.00236222 0)
(0.00107154 0.00136193 0)
(0.00117367 0.00149122 0)
(0.00127577 0.00162055 0)
(0.00137786 0.00174991 0)
(0.00147993 0.00187929 0)
(0.001582 0.00200868 0)
(0.00168407 0.00213809 0)
(0.00178613 0.0022675 0)
(0.0018882 0.00239692 0)
(0.00199026 0.00252635 0)
(0.000961608 0.00144197 0)
(0.00105327 0.00157889 0)
(0.00114491 0.00171584 0)
(0.00123652 0.00185281 0)
(0.00132813 0.0019898 0)
(0.00141973 0.00212681 0)
(0.00151132 0.00226382 0)
(0.00160292 0.00240085 0)
(0.00169451 0.00253788 0)
(0.00178611 0.00267492 0)
(0.000845744 0.00151313 0)
(0.000926372 0.00165683 0)
(0.00100697 0.00180055 0)
(0.00108755 0.00194429 0)
(0.00116812 0.00208805 0)
(0.00124868 0.00223182 0)
(0.00132924 0.0023756 0)
(0.0014098 0.00251939 0)
(0.00149036 0.00266319 0)
(0.00157093 0.00280699 0)
(0.000724661 0.00157496 0)
(0.000793751 0.00172455 0)
(0.000862813 0.00187416 0)
(0.00093186 0.00202379 0)
(0.0010009 0.00217343 0)
(0.00106993 0.00232308 0)
(0.00113895 0.00247274 0)
(0.00120798 0.00262241 0)
(0.00127701 0.00277208 0)
(0.00134604 0.00292176 0)
(0.000599106 0.00162708 0)
(0.000656229 0.00178164 0)
(0.000713327 0.00193621 0)
(0.000770412 0.0020908 0)
(0.000827488 0.0022454 0)
(0.00088456 0.0024 0)
(0.000941629 0.00255462 0)
(0.000998697 0.00270924 0)
(0.00105577 0.00286387 0)
(0.00111284 0.00301851 0)
(0.000469852 0.00166917 0)
(0.000514653 0.00182774 0)
(0.000559434 0.00198632 0)
(0.000604204 0.00214491 0)
(0.000648967 0.00230351 0)
(0.000693726 0.00246212 0)
(0.000738483 0.00262074 0)
(0.00078324 0.00277937 0)
(0.000827997 0.002938 0)
(0.000872755 0.00309664 0)
(0.000337697 0.00170096 0)
(0.000369898 0.00186257 0)
(0.000402084 0.00202418 0)
(0.000434262 0.00218579 0)
(0.000466435 0.00234742 0)
(0.000498605 0.00250906 0)
(0.000530773 0.0026707 0)
(0.000562942 0.00283235 0)
(0.00059511 0.002994 0)
(0.000627279 0.00315566 0)
(0.000203457 0.00172226 0)
(0.000222857 0.0018859 0)
(0.000242249 0.00204954 0)
(0.000261636 0.00221319 0)
(0.000281019 0.00237684 0)
(0.000300401 0.0025405 0)
(0.000319782 0.00270417 0)
(0.000339163 0.00286785 0)
(0.000358544 0.00303153 0)
(0.000377926 0.00319522 0)
(6.79592e-05 0.00173295 0)
(7.44391e-05 0.0018976 0)
(8.09165e-05 0.00206226 0)
(8.73921e-05 0.00222693 0)
(9.38668e-05 0.0023916 0)
(0.000100341 0.00255628 0)
(0.000106815 0.00272096 0)
(0.000113288 0.00288565 0)
(0.000119762 0.00305035 0)
(0.000126236 0.00321505 0)
(0.00172918 6.80812e-05 0)
(0.00189379 7.4533e-05 0)
(0.00205844 8.09907e-05 0)
(0.00222312 8.7453e-05 0)
(0.00238781 9.39181e-05 0)
(0.00255251 0.000100385 0)
(0.00271722 0.000106853 0)
(0.00288193 0.000113322 0)
(0.00304665 0.000119791 0)
(0.00321136 0.000126261 0)
(0.00171852 0.000203826 0)
(0.00188213 0.00022314 0)
(0.00204577 0.000242475 0)
(0.00220943 0.000261823 0)
(0.00237311 0.000281179 0)
(0.00253679 0.00030054 0)
(0.00270048 0.000319904 0)
(0.00286418 0.000339271 0)
(0.00302788 0.000358639 0)
(0.00319158 0.000378008 0)
(0.00169728 0.000338316 0)
(0.00185887 0.000370375 0)
(0.00202049 0.00040247 0)
(0.00218214 0.000434584 0)
(0.00234379 0.000466712 0)
(0.00250545 0.000498848 0)
(0.00266712 0.00053099 0)
(0.00282879 0.000563135 0)
(0.00299047 0.000595283 0)
(0.00315215 0.000627432 0)
(0.00166558 0.000470723 0)
(0.00182417 0.000515333 0)
(0.00198278 0.000559991 0)
(0.00214141 0.000604676 0)
(0.00230004 0.000649378 0)
(0.00245868 0.000694092 0)
(0.00261733 0.000738813 0)
(0.00277598 0.000783539 0)
(0.00293464 0.000828268 0)
(0.0030933 0.000872999 0)
(0.00162362 0.000600228 0)
(0.00177823 0.000657122 0)
(0.00193285 0.000714071 0)
(0.00208748 0.000771052 0)
(0.00224212 0.000828054 0)
(0.00239677 0.00088507 0)
(0.00255142 0.000942095 0)
(0.00270607 0.000999127 0)
(0.00286073 0.00105616 0)
(0.00301539 0.0011132 0)
(0.00157165 0.000726034 0)
(0.00172133 0.000794867 0)
(0.00187101 0.000863759 0)
(0.00202069 0.000932687 0)
(0.00217039 0.00100164 0)
(0.00232008 0.00107061 0)
(0.00246978 0.00113958 0)
(0.00261948 0.00120857 0)
(0.00276919 0.00127756 0)
(0.0029189 0.00134655 0)
(0.00150999 0.000847363 0)
(0.00165381 0.000927719 0)
(0.00179763 0.00100813 0)
(0.00194145 0.00108859 0)
(0.00208527 0.00116906 0)
(0.00222909 0.00124956 0)
(0.00237292 0.00133006 0)
(0.00251675 0.00141058 0)
(0.00266058 0.0014911 0)
(0.00280441 0.00157162 0)
(0.00143901 0.000963469 0)
(0.00157609 0.00105486 0)
(0.00171316 0.0011463 0)
(0.00185023 0.00123778 0)
(0.0019873 0.00132929 0)
(0.00212436 0.00142082 0)
(0.00226143 0.00151236 0)
(0.0023985 0.00160391 0)
(0.00253557 0.00169546 0)
(0.00267264 0.00178702 0)
(0.00135916 0.00107364 0)
(0.00148866 0.0011755 0)
(0.00161813 0.00127741 0)
(0.0017476 0.00137936 0)
(0.00187706 0.00148134 0)
(0.00200652 0.00158333 0)
(0.00213599 0.00168534 0)
(0.00226545 0.00178736 0)
(0.00239491 0.00188939 0)
(0.00252438 0.00199142 0)
(0.00127093 0.00117719 0)
(0.00139203 0.00128889 0)
(0.00151311 0.00140065 0)
(0.00163418 0.00151245 0)
(0.00175525 0.00162427 0)
(0.00187631 0.0017361 0)
(0.00199736 0.00184795 0)
(0.00211842 0.00195981 0)
(0.00223948 0.00207168 0)
(0.00236054 0.00218355 0)
(0.0033756 0.000129208 0)
(0.00354085 0.000128567 0)
(0.00370611 0.000127926 0)
(0.00387137 0.000127284 0)
(0.00403663 0.000126643 0)
(0.00420188 0.000126002 0)
(0.00436714 0.000125361 0)
(0.00453239 0.000124719 0)
(0.00469765 0.000124078 0)
(0.00486291 0.000123436 0)
(0.00502816 0.000122794 0)
(0.00519342 0.000122152 0)
(0.00535868 0.00012151 0)
(0.00552394 0.000120868 0)
(0.0056892 0.000120225 0)
(0.00585446 0.000119582 0)
(0.00601973 0.000118939 0)
(0.006185 0.000118295 0)
(0.00635027 0.000117651 0)
(0.00651554 0.000117008 0)
(0.0033558 0.000386848 0)
(0.00352208 0.000384963 0)
(0.00368835 0.000383079 0)
(0.00385462 0.000381195 0)
(0.00402089 0.000379311 0)
(0.00418716 0.000377427 0)
(0.00435344 0.000375543 0)
(0.00451971 0.000373659 0)
(0.00468598 0.000371774 0)
(0.00485225 0.000369889 0)
(0.00501852 0.000368003 0)
(0.0051848 0.000366117 0)
(0.00535107 0.00036423 0)
(0.00551735 0.000362343 0)
(0.00568362 0.000360455 0)
(0.0058499 0.000358566 0)
(0.00601619 0.000356676 0)
(0.00618247 0.000354785 0)
(0.00634876 0.000352894 0)
(0.00651505 0.000351002 0)
(0.00331635 0.000642161 0)
(0.00348464 0.000639151 0)
(0.00365294 0.000636143 0)
(0.00382123 0.000633135 0)
(0.00398953 0.000630127 0)
(0.00415782 0.00062712 0)
(0.00432612 0.000624112 0)
(0.00449441 0.000621104 0)
(0.00466271 0.000618095 0)
(0.00483101 0.000615086 0)
(0.0049993 0.000612076 0)
(0.0051676 0.000609065 0)
(0.0053359 0.000606053 0)
(0.00550421 0.00060304 0)
(0.00567251 0.000600025 0)
(0.00584082 0.00059701 0)
(0.00600912 0.000593992 0)
(0.00617744 0.000590974 0)
(0.00634575 0.000587953 0)
(0.00651407 0.000584931 0)
(0.00325746 0.000893612 0)
(0.00342877 0.000889674 0)
(0.00360009 0.000885737 0)
(0.0037714 0.000881803 0)
(0.00394272 0.000877869 0)
(0.00411403 0.000873936 0)
(0.00428535 0.000870002 0)
(0.00445667 0.000866068 0)
(0.00462799 0.000862133 0)
(0.00479931 0.000858198 0)
(0.00497063 0.000854261 0)
(0.00514195 0.000850324 0)
(0.00531327 0.000846385 0)
(0.0054846 0.000842444 0)
(0.00565593 0.000838502 0)
(0.00582726 0.000834557 0)
(0.00599859 0.000830611 0)
(0.00616993 0.000826662 0)
(0.00634126 0.000822711 0)
(0.00651261 0.000818757 0)
(0.00317952 0.00113969 0)
(0.00335482 0.00113509 0)
(0.00353013 0.00113051 0)
(0.00370544 0.00112592 0)
(0.00388075 0.00112133 0)
(0.00405607 0.00111675 0)
(0.00423139 0.00111217 0)
(0.0044067 0.00110758 0)
(0.00458202 0.001103 0)
(0.00475735 0.00109841 0)
(0.00493267 0.00109382 0)
(0.00510799 0.00108923 0)
(0.00528332 0.00108464 0)
(0.00545865 0.00108005 0)
(0.00563398 0.00107546 0)
(0.00580931 0.00107086 0)
(0.00598465 0.00106626 0)
(0.00615999 0.00106166 0)
(0.00633533 0.00105705 0)
(0.00651067 0.00105244 0)
(0.00308298 0.00137891 0)
(0.00326324 0.00137401 0)
(0.00344349 0.00136912 0)
(0.00362376 0.00136423 0)
(0.00380402 0.00135935 0)
(0.00398429 0.00135446 0)
(0.00416456 0.00134958 0)
(0.00434483 0.00134469 0)
(0.00452511 0.00133981 0)
(0.00470538 0.00133492 0)
(0.00488566 0.00133004 0)
(0.00506594 0.00132515 0)
(0.00524623 0.00132026 0)
(0.00542651 0.00131537 0)
(0.0056068 0.00131047 0)
(0.00578709 0.00130557 0)
(0.00596738 0.00130067 0)
(0.00614768 0.00129576 0)
(0.00632798 0.00129085 0)
(0.00650828 0.00128594 0)
(0.00296845 0.00160983 0)
(0.00315458 0.00160506 0)
(0.00334071 0.00160029 0)
(0.00352685 0.00159552 0)
(0.00371299 0.00159076 0)
(0.00389913 0.001586 0)
(0.00408528 0.00158124 0)
(0.00427143 0.00157648 0)
(0.00445759 0.00157172 0)
(0.00464374 0.00156697 0)
(0.0048299 0.0015622 0)
(0.00501606 0.00155744 0)
(0.00520222 0.00155268 0)
(0.00538839 0.00154791 0)
(0.00557456 0.00154314 0)
(0.00576073 0.00153836 0)
(0.0059469 0.00153358 0)
(0.00613308 0.0015288 0)
(0.00631926 0.00152401 0)
(0.00650544 0.00151921 0)
(0.00283663 0.00183108 0)
(0.00302952 0.00182692 0)
(0.00322242 0.00182277 0)
(0.00341531 0.00181862 0)
(0.00360822 0.00181448 0)
(0.00380113 0.00181034 0)
(0.00399404 0.0018062 0)
(0.00418696 0.00180206 0)
(0.00437988 0.00179792 0)
(0.0045728 0.00179379 0)
(0.00476572 0.00178965 0)
(0.00495865 0.00178551 0)
(0.00515158 0.00178136 0)
(0.00534452 0.00177722 0)
(0.00553745 0.00177307 0)
(0.00573039 0.00176892 0)
(0.00592333 0.00176476 0)
(0.00611628 0.00176059 0)
(0.00630922 0.00175641 0)
(0.00650217 0.00175223 0)
(0.00268833 0.00204131 0)
(0.00288883 0.00203833 0)
(0.00308934 0.00203536 0)
(0.00328984 0.0020324 0)
(0.00349036 0.00202944 0)
(0.00369088 0.00202648 0)
(0.0038914 0.00202353 0)
(0.00409193 0.00202058 0)
(0.00429246 0.00201763 0)
(0.004493 0.00201468 0)
(0.00469353 0.00201172 0)
(0.00489407 0.00200877 0)
(0.00509462 0.00200581 0)
(0.00529516 0.00200285 0)
(0.00549571 0.00199989 0)
(0.00569627 0.00199692 0)
(0.00589682 0.00199394 0)
(0.00609738 0.00199096 0)
(0.00629794 0.00198797 0)
(0.0064985 0.00198497 0)
(0.00252446 0.00223926 0)
(0.00273338 0.0022381 0)
(0.00294229 0.00223694 0)
(0.00315121 0.00223579 0)
(0.00336014 0.00223465 0)
(0.00356907 0.0022335 0)
(0.003778 0.00223236 0)
(0.00398694 0.00223123 0)
(0.00419588 0.00223009 0)
(0.00440483 0.00222895 0)
(0.00461377 0.00222782 0)
(0.00482273 0.00222668 0)
(0.00503168 0.00222554 0)
(0.00524064 0.00222439 0)
(0.0054496 0.00222324 0)
(0.00565856 0.00222209 0)
(0.00586753 0.00222093 0)
(0.0060765 0.00221976 0)
(0.00628547 0.00221858 0)
(0.00649445 0.00221738 0)
(0.00243937 0.00244087 0)
(0.00265264 0.00244079 0)
(0.00286591 0.0024407 0)
(0.00307919 0.00244062 0)
(0.00329247 0.00244054 0)
(0.00350575 0.00244047 0)
(0.00371904 0.0024404 0)
(0.00393234 0.00244033 0)
(0.00414564 0.00244026 0)
(0.00435894 0.00244019 0)
(0.00457225 0.00244013 0)
(0.00478557 0.00244006 0)
(0.00499888 0.00243998 0)
(0.00521221 0.00243991 0)
(0.00542553 0.00243983 0)
(0.00563886 0.00243974 0)
(0.00585219 0.00243965 0)
(0.00606553 0.00243955 0)
(0.00627887 0.00243944 0)
(0.00649221 0.00243931 0)
(0.00243946 0.00265426 0)
(0.00265274 0.00265417 0)
(0.00286601 0.00265408 0)
(0.00307929 0.00265399 0)
(0.00329257 0.00265391 0)
(0.00350586 0.00265383 0)
(0.00371915 0.00265376 0)
(0.00393245 0.00265368 0)
(0.00414575 0.00265361 0)
(0.00435906 0.00265354 0)
(0.00457237 0.00265346 0)
(0.00478568 0.00265339 0)
(0.004999 0.00265331 0)
(0.00521232 0.00265323 0)
(0.00542565 0.00265314 0)
(0.00563898 0.00265305 0)
(0.00585231 0.00265295 0)
(0.00606564 0.00265284 0)
(0.00627898 0.00265272 0)
(0.00649233 0.00265259 0)
(0.00243955 0.00286764 0)
(0.00265283 0.00286755 0)
(0.00286611 0.00286746 0)
(0.00307939 0.00286737 0)
(0.00329268 0.00286728 0)
(0.00350597 0.0028672 0)
(0.00371926 0.00286712 0)
(0.00393256 0.00286704 0)
(0.00414586 0.00286696 0)
(0.00435917 0.00286688 0)
(0.00457248 0.0028668 0)
(0.0047858 0.00286672 0)
(0.00499911 0.00286663 0)
(0.00521244 0.00286654 0)
(0.00542576 0.00286645 0)
(0.00563909 0.00286635 0)
(0.00585243 0.00286625 0)
(0.00606577 0.00286614 0)
(0.00627911 0.00286601 0)
(0.00649245 0.00286587 0)
(0.00243964 0.00308102 0)
(0.00265292 0.00308092 0)
(0.0028662 0.00308083 0)
(0.00307949 0.00308074 0)
(0.00329278 0.00308065 0)
(0.00350607 0.00308056 0)
(0.00371937 0.00308047 0)
(0.00393267 0.00308039 0)
(0.00414598 0.0030803 0)
(0.00435928 0.00308022 0)
(0.0045726 0.00308013 0)
(0.00478591 0.00308005 0)
(0.00499923 0.00307996 0)
(0.00521256 0.00307986 0)
(0.00542588 0.00307976 0)
(0.00563922 0.00307966 0)
(0.00585255 0.00307955 0)
(0.00606589 0.00307943 0)
(0.00627923 0.00307931 0)
(0.00649257 0.00307916 0)
(0.00243972 0.00329439 0)
(0.00265301 0.00329429 0)
(0.0028663 0.0032942 0)
(0.00307959 0.0032941 0)
(0.00329288 0.00329401 0)
(0.00350618 0.00329392 0)
(0.00371948 0.00329383 0)
(0.00393278 0.00329374 0)
(0.00414609 0.00329365 0)
(0.0043594 0.00329356 0)
(0.00457271 0.00329347 0)
(0.00478603 0.00329337 0)
(0.00499935 0.00329328 0)
(0.00521268 0.00329318 0)
(0.00542601 0.00329308 0)
(0.00563934 0.00329297 0)
(0.00585267 0.00329285 0)
(0.00606601 0.00329273 0)
(0.00627935 0.0032926 0)
(0.00649269 0.00329246 0)
(0.0024398 0.00350776 0)
(0.00265309 0.00350766 0)
(0.00286639 0.00350756 0)
(0.00307968 0.00350747 0)
(0.00329298 0.00350737 0)
(0.00350628 0.00350728 0)
(0.00371958 0.00350718 0)
(0.00393289 0.00350709 0)
(0.0041462 0.00350699 0)
(0.00435951 0.0035069 0)
(0.00457283 0.0035068 0)
(0.00478615 0.0035067 0)
(0.00499947 0.0035066 0)
(0.0052128 0.0035065 0)
(0.00542613 0.00350639 0)
(0.00563946 0.00350628 0)
(0.0058528 0.00350616 0)
(0.00606613 0.00350604 0)
(0.00627947 0.0035059 0)
(0.00649281 0.00350576 0)
(0.00243988 0.00372112 0)
(0.00265318 0.00372102 0)
(0.00286647 0.00372092 0)
(0.00307977 0.00372082 0)
(0.00329308 0.00372073 0)
(0.00350638 0.00372063 0)
(0.00371969 0.00372053 0)
(0.003933 0.00372043 0)
(0.00414631 0.00372033 0)
(0.00435963 0.00372023 0)
(0.00457295 0.00372013 0)
(0.00478627 0.00372003 0)
(0.00499959 0.00371993 0)
(0.00521292 0.00371982 0)
(0.00542625 0.00371971 0)
(0.00563959 0.00371959 0)
(0.00585292 0.00371947 0)
(0.00606626 0.00371934 0)
(0.0062796 0.0037192 0)
(0.00649293 0.00371906 0)
(0.00243995 0.00393448 0)
(0.00265325 0.00393438 0)
(0.00286656 0.00393428 0)
(0.00307986 0.00393418 0)
(0.00329317 0.00393408 0)
(0.00350648 0.00393398 0)
(0.00371979 0.00393388 0)
(0.00393311 0.00393378 0)
(0.00414642 0.00393367 0)
(0.00435974 0.00393357 0)
(0.00457306 0.00393346 0)
(0.00478639 0.00393336 0)
(0.00499972 0.00393325 0)
(0.00521305 0.00393314 0)
(0.00542638 0.00393302 0)
(0.00563971 0.0039329 0)
(0.00585305 0.00393278 0)
(0.00606638 0.00393265 0)
(0.00627972 0.00393251 0)
(0.00649306 0.00393236 0)
(0.00244002 0.00414783 0)
(0.00265333 0.00414773 0)
(0.00286664 0.00414763 0)
(0.00307995 0.00414753 0)
(0.00329327 0.00414743 0)
(0.00350658 0.00414732 0)
(0.0037199 0.00414722 0)
(0.00393321 0.00414712 0)
(0.00414653 0.00414701 0)
(0.00435986 0.0041469 0)
(0.00457318 0.00414679 0)
(0.00478651 0.00414668 0)
(0.00499984 0.00414657 0)
(0.00521317 0.00414646 0)
(0.0054265 0.00414634 0)
(0.00563984 0.00414621 0)
(0.00585317 0.00414609 0)
(0.00606651 0.00414595 0)
(0.00627984 0.00414582 0)
(0.00649318 0.00414567 0)
(0.00244009 0.00436118 0)
(0.00265341 0.00436108 0)
(0.00286672 0.00436098 0)
(0.00308004 0.00436088 0)
(0.00329336 0.00436077 0)
(0.00350668 0.00436067 0)
(0.00372 0.00436056 0)
(0.00393332 0.00436045 0)
(0.00414664 0.00436034 0)
(0.00435997 0.00436023 0)
(0.0045733 0.00436012 0)
(0.00478663 0.00436001 0)
(0.00499996 0.00435989 0)
(0.00521329 0.00435978 0)
(0.00542663 0.00435965 0)
(0.00563996 0.00435953 0)
(0.0058533 0.0043594 0)
(0.00606664 0.00435927 0)
(0.00627997 0.00435913 0)
(0.00649331 0.00435898 0)
(0.00244016 0.00457452 0)
(0.00265349 0.00457442 0)
(0.00286681 0.00457432 0)
(0.00308013 0.00457422 0)
(0.00329345 0.00457412 0)
(0.00350678 0.00457401 0)
(0.0037201 0.0045739 0)
(0.00393343 0.00457379 0)
(0.00414676 0.00457368 0)
(0.00436008 0.00457356 0)
(0.00457342 0.00457345 0)
(0.00478675 0.00457333 0)
(0.00500008 0.00457321 0)
(0.00521342 0.00457309 0)
(0.00542676 0.00457297 0)
(0.00564009 0.00457284 0)
(0.00585343 0.00457271 0)
(0.00606676 0.00457258 0)
(0.0062801 0.00457244 0)
(0.00649344 0.00457229 0)
(0.00244024 0.00478786 0)
(0.00265356 0.00478777 0)
(0.00286689 0.00478766 0)
(0.00308022 0.00478756 0)
(0.00329355 0.00478745 0)
(0.00350688 0.00478735 0)
(0.00372021 0.00478723 0)
(0.00393354 0.00478712 0)
(0.00414687 0.00478701 0)
(0.0043602 0.00478689 0)
(0.00457353 0.00478677 0)
(0.00478687 0.00478665 0)
(0.00500021 0.00478653 0)
(0.00521355 0.00478641 0)
(0.00542688 0.00478629 0)
(0.00564022 0.00478616 0)
(0.00585356 0.00478603 0)
(0.0060669 0.00478589 0)
(0.00628023 0.00478575 0)
(0.00649357 0.0047856 0)
(0.00244031 0.0050012 0)
(0.00265364 0.0050011 0)
(0.00286698 0.005001 0)
(0.00308031 0.0050009 0)
(0.00329364 0.00500079 0)
(0.00350698 0.00500068 0)
(0.00372031 0.00500057 0)
(0.00393365 0.00500045 0)
(0.00414698 0.00500034 0)
(0.00436032 0.00500022 0)
(0.00457365 0.0050001 0)
(0.00478699 0.00499998 0)
(0.00500033 0.00499985 0)
(0.00521367 0.00499973 0)
(0.00542701 0.0049996 0)
(0.00564036 0.00499947 0)
(0.0058537 0.00499934 0)
(0.00606703 0.00499921 0)
(0.00628037 0.00499906 0)
(0.0064937 0.00499891 0)
(0.00244038 0.00521453 0)
(0.00265373 0.00521444 0)
(0.00286707 0.00521434 0)
(0.0030804 0.00521423 0)
(0.00329374 0.00521412 0)
(0.00350708 0.00521401 0)
(0.00372042 0.0052139 0)
(0.00393376 0.00521378 0)
(0.0041471 0.00521366 0)
(0.00436044 0.00521354 0)
(0.00457378 0.00521342 0)
(0.00478712 0.00521329 0)
(0.00500046 0.00521317 0)
(0.0052138 0.00521304 0)
(0.00542715 0.00521291 0)
(0.00564049 0.00521279 0)
(0.00585383 0.00521266 0)
(0.00606717 0.00521252 0)
(0.00628051 0.00521238 0)
(0.00649385 0.00521223 0)
(0.00244046 0.00542786 0)
(0.00265381 0.00542777 0)
(0.00286716 0.00542767 0)
(0.0030805 0.00542756 0)
(0.00329385 0.00542745 0)
(0.00350719 0.00542734 0)
(0.00372053 0.00542723 0)
(0.00393387 0.00542711 0)
(0.00414721 0.00542699 0)
(0.00436056 0.00542686 0)
(0.0045739 0.00542674 0)
(0.00478724 0.00542661 0)
(0.00500059 0.00542648 0)
(0.00521393 0.00542636 0)
(0.00542728 0.00542623 0)
(0.00564063 0.0054261 0)
(0.00585397 0.00542597 0)
(0.00606732 0.00542584 0)
(0.00628066 0.0054257 0)
(0.00649399 0.00542555 0)
(0.00244055 0.00564119 0)
(0.0026539 0.00564109 0)
(0.00286725 0.00564099 0)
(0.0030806 0.00564089 0)
(0.00329395 0.00564078 0)
(0.0035073 0.00564067 0)
(0.00372065 0.00564055 0)
(0.00393399 0.00564043 0)
(0.00414734 0.00564031 0)
(0.00436068 0.00564019 0)
(0.00457403 0.00564006 0)
(0.00478737 0.00563993 0)
(0.00500072 0.0056398 0)
(0.00521406 0.00563967 0)
(0.00542741 0.00563954 0)
(0.00564076 0.0056394 0)
(0.00585411 0.00563928 0)
(0.00606746 0.00563915 0)
(0.00628081 0.00563903 0)
(0.00649415 0.00563888 0)
(0.00244063 0.00585451 0)
(0.002654 0.00585442 0)
(0.00286735 0.00585432 0)
(0.00308071 0.00585421 0)
(0.00329406 0.0058541 0)
(0.00350742 0.00585399 0)
(0.00372077 0.00585387 0)
(0.00393412 0.00585376 0)
(0.00414747 0.00585363 0)
(0.00436081 0.00585351 0)
(0.00457416 0.00585338 0)
(0.0047875 0.00585325 0)
(0.00500085 0.00585312 0)
(0.0052142 0.00585298 0)
(0.00542754 0.00585284 0)
(0.00564089 0.00585271 0)
(0.00585425 0.00585258 0)
(0.0060676 0.00585246 0)
(0.00628096 0.00585235 0)
(0.0064943 0.00585222 0)
(0.00244073 0.00606783 0)
(0.0026541 0.00606774 0)
(0.00286746 0.00606764 0)
(0.00308082 0.00606753 0)
(0.00329418 0.00606742 0)
(0.00350754 0.00606731 0)
(0.0037209 0.0060672 0)
(0.00393425 0.00606708 0)
(0.0041476 0.00606695 0)
(0.00436095 0.00606683 0)
(0.0045743 0.0060667 0)
(0.00478765 0.00606657 0)
(0.00500099 0.00606643 0)
(0.00521433 0.0060663 0)
(0.00542768 0.00606616 0)
(0.00564102 0.00606602 0)
(0.00585437 0.00606588 0)
(0.00606773 0.00606576 0)
(0.00628109 0.00606567 0)
(0.00649444 0.00606558 0)
(0.00244083 0.00628115 0)
(0.0026542 0.00628105 0)
(0.00286757 0.00628095 0)
(0.00308094 0.00628085 0)
(0.00329431 0.00628074 0)
(0.00350767 0.00628063 0)
(0.00372103 0.00628052 0)
(0.00393439 0.0062804 0)
(0.00414775 0.00628028 0)
(0.0043611 0.00628015 0)
(0.00457445 0.00628002 0)
(0.00478779 0.00627989 0)
(0.00500114 0.00627975 0)
(0.00521448 0.00627961 0)
(0.00542782 0.00627947 0)
(0.00564115 0.00627933 0)
(0.00585448 0.00627918 0)
(0.00606782 0.00627906 0)
(0.00628117 0.00627897 0)
(0.00649452 0.00627896 0)
(0.00244093 0.00649446 0)
(0.00265431 0.00649437 0)
(0.00286769 0.00649427 0)
(0.00308107 0.00649417 0)
(0.00329444 0.00649406 0)
(0.00350781 0.00649395 0)
(0.00372117 0.00649383 0)
(0.00393454 0.00649372 0)
(0.0041479 0.00649359 0)
(0.00436125 0.00649347 0)
(0.0045746 0.00649334 0)
(0.00478795 0.00649321 0)
(0.0050013 0.00649308 0)
(0.00521464 0.00649294 0)
(0.00542797 0.00649279 0)
(0.0056413 0.00649265 0)
(0.00585461 0.0064925 0)
(0.00606791 0.00649236 0)
(0.00628118 0.00649228 0)
(0.00649445 0.00649236 0)
(0.000129188 0.00337927 0)
(0.000386781 0.00335943 0)
(0.000642034 0.00331986 0)
(0.000893404 0.00326081 0)
(0.00113937 0.00318265 0)
(0.00137845 0.00308587 0)
(0.00160921 0.00297106 0)
(0.00183025 0.00283895 0)
(0.00204025 0.00269035 0)
(0.00223795 0.00252619 0)
(0.000128551 0.00354452 0)
(0.000384912 0.0035257 0)
(0.000639053 0.00348816 0)
(0.00088951 0.00343214 0)
(0.00113484 0.00335799 0)
(0.00137364 0.00326618 0)
(0.00160454 0.00315727 0)
(0.00182622 0.00303193 0)
(0.00203742 0.00289096 0)
(0.00223696 0.00273523 0)
(0.000127915 0.00370978 0)
(0.000383042 0.00369197 0)
(0.00063607 0.00365646 0)
(0.000885613 0.00360347 0)
(0.00113031 0.00353334 0)
(0.00136882 0.00344649 0)
(0.00159986 0.00334347 0)
(0.00182219 0.00322491 0)
(0.0020346 0.00309157 0)
(0.00223596 0.00294425 0)
(0.000127278 0.00387503 0)
(0.000381172 0.00385824 0)
(0.000633087 0.00382476 0)
(0.000881715 0.0037748 0)
(0.00112577 0.00370868 0)
(0.001364 0.00362679 0)
(0.00159519 0.00352966 0)
(0.00181815 0.00341789 0)
(0.00203176 0.00329216 0)
(0.00223497 0.00315327 0)
(0.000126641 0.00404028 0)
(0.000379301 0.00402451 0)
(0.000630102 0.00399306 0)
(0.000877816 0.00394613 0)
(0.00112124 0.00388401 0)
(0.00135918 0.0038071 0)
(0.00159051 0.00371585 0)
(0.00181411 0.00361086 0)
(0.00202893 0.00349276 0)
(0.00223397 0.00336229 0)
(0.000126004 0.00420553 0)
(0.000377431 0.00419078 0)
(0.000627117 0.00416136 0)
(0.000873916 0.00411746 0)
(0.0011167 0.00405935 0)
(0.00135436 0.0039874 0)
(0.00158582 0.00390204 0)
(0.00181006 0.00380382 0)
(0.00202608 0.00369334 0)
(0.00223296 0.00357129 0)
(0.000125367 0.00437078 0)
(0.00037556 0.00435704 0)
(0.000624132 0.00432966 0)
(0.000870016 0.00428878 0)
(0.00111216 0.00423468 0)
(0.00134953 0.00416769 0)
(0.00158114 0.00408823 0)
(0.00180601 0.00399678 0)
(0.00202324 0.00389393 0)
(0.00223195 0.0037803 0)
(0.00012473 0.00453603 0)
(0.000373689 0.00452331 0)
(0.000621148 0.00449795 0)
(0.000866115 0.00446011 0)
(0.00110762 0.00441002 0)
(0.00134471 0.00434799 0)
(0.00157645 0.00427441 0)
(0.00180196 0.00418974 0)
(0.0020204 0.0040945 0)
(0.00223094 0.00398929 0)
(0.000124093 0.00470128 0)
(0.000371819 0.00468958 0)
(0.000618163 0.00466625 0)
(0.000862215 0.00463143 0)
(0.00110308 0.00458535 0)
(0.00133988 0.00452828 0)
(0.00157176 0.00446059 0)
(0.00179792 0.00438269 0)
(0.00201755 0.00429508 0)
(0.00222992 0.00419828 0)
(0.000123457 0.00486653 0)
(0.000369948 0.00485585 0)
(0.000615179 0.00483455 0)
(0.000858316 0.00480276 0)
(0.00109854 0.00476068 0)
(0.00133505 0.00470858 0)
(0.00156708 0.00464677 0)
(0.00179387 0.00457565 0)
(0.0020147 0.00449565 0)
(0.00222891 0.00440727 0)
(0.00012282 0.00503178 0)
(0.000368078 0.00502212 0)
(0.000612195 0.00500284 0)
(0.000854417 0.00497408 0)
(0.001094 0.00493601 0)
(0.00133023 0.00488886 0)
(0.00156239 0.00483294 0)
(0.00178982 0.00476859 0)
(0.00201186 0.00469621 0)
(0.00222789 0.00461625 0)
(0.000122183 0.00519703 0)
(0.000366209 0.00518838 0)
(0.000609212 0.00517113 0)
(0.000850519 0.0051454 0)
(0.00108947 0.00511133 0)
(0.00132541 0.00506915 0)
(0.00155771 0.00501912 0)
(0.00178577 0.00496154 0)
(0.00200901 0.00489677 0)
(0.00222688 0.00482523 0)
(0.000121547 0.00536228 0)
(0.000364339 0.00535465 0)
(0.000606229 0.00533943 0)
(0.000846621 0.00531672 0)
(0.00108493 0.00528666 0)
(0.00132058 0.00524944 0)
(0.00155303 0.00520529 0)
(0.00178172 0.00515448 0)
(0.00200617 0.00509733 0)
(0.00222587 0.0050342 0)
(0.000120911 0.00552752 0)
(0.00036247 0.00552091 0)
(0.000603247 0.00550772 0)
(0.000842725 0.00548804 0)
(0.0010804 0.00546198 0)
(0.00131576 0.00542972 0)
(0.00154835 0.00539145 0)
(0.00177768 0.00534742 0)
(0.00200333 0.00529789 0)
(0.00222486 0.00524317 0)
(0.000120274 0.00569277 0)
(0.000360602 0.00568717 0)
(0.000600266 0.00567601 0)
(0.000838829 0.00565935 0)
(0.00107586 0.00563731 0)
(0.00131094 0.00561 0)
(0.00154367 0.00557762 0)
(0.00177364 0.00554035 0)
(0.00200049 0.00549844 0)
(0.00222385 0.00545213 0)
(0.000119638 0.00585801 0)
(0.000358734 0.00585343 0)
(0.000597285 0.0058443 0)
(0.000834935 0.00583067 0)
(0.00107133 0.00581263 0)
(0.00130613 0.00579028 0)
(0.00153899 0.00576378 0)
(0.0017696 0.00573329 0)
(0.00199765 0.00569899 0)
(0.00222285 0.0056611 0)
(0.000119002 0.00602325 0)
(0.000356866 0.00601969 0)
(0.000594305 0.00601258 0)
(0.000831041 0.00600198 0)
(0.0010668 0.00598794 0)
(0.00130131 0.00597056 0)
(0.00153432 0.00594994 0)
(0.00176557 0.00592622 0)
(0.00199482 0.00589953 0)
(0.00222185 0.00587005 0)
(0.000118367 0.00618849 0)
(0.000354998 0.00618595 0)
(0.000591326 0.00618087 0)
(0.000827149 0.00617329 0)
(0.00106227 0.00616326 0)
(0.0012965 0.00615084 0)
(0.00152964 0.0061361 0)
(0.00176153 0.00611914 0)
(0.00199199 0.00610007 0)
(0.00222086 0.00607901 0)
(0.000117731 0.00635373 0)
(0.000353131 0.0063522 0)
(0.000588347 0.00634915 0)
(0.000823257 0.0063446 0)
(0.00105774 0.00633857 0)
(0.00129169 0.00633111 0)
(0.00152498 0.00632225 0)
(0.0017575 0.00631207 0)
(0.00198917 0.00630061 0)
(0.00221987 0.00628795 0)
(0.000117095 0.00651897 0)
(0.000351264 0.00651846 0)
(0.000585369 0.00651743 0)
(0.000819366 0.0065159 0)
(0.00105322 0.00651388 0)
(0.00128688 0.00651138 0)
(0.00152031 0.00650841 0)
(0.00175348 0.00650499 0)
(0.00198635 0.00650114 0)
(0.00221889 0.0064969 0)
)
;

boundaryField
{
    left
    {
        type            symmetryPlane;
    }
    right
    {
        type            tractionDisplacement;
        traction        uniform (10000 0 0);
        pressure        
        {
            type            uniform;
            value           0;
        }
        value           nonuniform List<vector> 
30
(
(0.00659826 0.000117007 2.44417e-21)
(0.00659827 0.000350994 -1.62418e-21)
(0.00659829 0.000584917 -9.11806e-25)
(0.00659832 0.000818736 2.44467e-21)
(0.00659837 0.00105241 -2.4313e-21)
(0.00659843 0.0012859 -9.67771e-24)
(0.0065985 0.00151917 -7.26651e-24)
(0.00659858 0.00175219 -2.51766e-23)
(0.00659867 0.00198491 1.62277e-21)
(0.00659877 0.00221731 2.59509e-23)
(0.00659889 0.00243923 -7.26987e-24)
(0.006599 0.00265251 5.0869e-36)
(0.00659912 0.00286579 -5.53261e-25)
(0.00659924 0.00307908 -5.50507e-25)
(0.00659936 0.00329238 1.08695e-24)
(0.00659948 0.00350568 2.54605e-36)
(0.0065996 0.00371898 5.08103e-36)
(0.00659973 0.00393229 5.30887e-25)
(0.00659985 0.00414559 -5.3267e-25)
(0.00659998 0.0043589 2.54244e-36)
(0.0066001 0.00457221 -3.75614e-39)
(0.00660024 0.00478552 -3.83723e-39)
(0.00660037 0.00499883 0)
(0.00660051 0.00521214 2.54227e-36)
(0.00660066 0.00542546 5.09295e-36)
(0.00660081 0.00563879 2.54638e-36)
(0.00660096 0.00585214 3.96497e-39)
(0.0066011 0.00606552 -9.23944e-41)
(0.00660118 0.00627897 -6.37635e-26)
(0.00660111 0.00649252 0)
)
;
    }
    down
    {
        type            symmetryPlane;
    }
    up
    {
        type            tractionDisplacement;
        traction        uniform (0 0 0);
        pressure        
        {
            type            uniform;
            value           0;
        }
        value           nonuniform List<vector> 
30
(
(0.000117096 0.00660166 2.44433e-21)
(0.00035127 0.00660165 -2.43971e-21)
(0.000585379 0.00660163 2.43677e-21)
(0.000819381 0.0066016 8.15719e-22)
(0.00105324 0.00660156 -8.06836e-22)
(0.0012869 0.00660151 -8.15674e-22)
(0.00152034 0.00660144 1.15058e-24)
(0.00175352 0.00660137 -8.07644e-22)
(0.00198639 0.00660129 1.24582e-23)
(0.00221894 0.00660121 -1.58964e-21)
(0.00244099 0.00660111 -7.47638e-22)
(0.00265437 0.00660102 -4.12504e-25)
(0.00286776 0.00660092 -4.35324e-25)
(0.00308113 0.00660082 0)
(0.00329451 0.00660072 4.76535e-25)
(0.00350788 0.00660061 4.95052e-25)
(0.00372125 0.00660049 -5.12257e-25)
(0.00393461 0.00660037 -5.28134e-25)
(0.00414797 0.00660025 5.42623e-25)
(0.00436133 0.00660013 2.53453e-36)
(0.00457469 0.0066 3.90482e-39)
(0.00478804 0.00659987 2.54204e-36)
(0.00500138 0.00659974 5.08437e-36)
(0.00521472 0.0065996 5.08851e-36)
(0.00542806 0.00659946 5.08448e-36)
(0.00564138 0.00659931 5.08865e-36)
(0.00585469 0.00659917 -5.64382e-25)
(0.00606796 0.00659903 0)
(0.00628117 0.00659895 0)
(0.00649428 0.00659902 0)
)
;
    }
    hole
    {
        type            tractionDisplacement;
        traction        uniform (0 0 0);
        pressure        
        {
            type            uniform;
            value           0;
        }
        value           nonuniform List<vector> 
20
(
(0.00111792 0.00121206 8.79358e-22)
(0.0010196 0.00129622 5.72481e-23)
(0.000914989 0.00137239 0)
(0.000804737 0.0014401 -2.60478e-22)