/*--------------------------------*- C++ -*----------------------------------*\
  =========                 |
  \\      /  F ield         | OpenFOAM: The Open Source CFD Toolbox
   \\    /   O peration     | Website:  https://openfoam.org
    \\  /    A nd           | Version:  dev
     \\/     M anipulation  |
\*---------------------------------------------------------------------------*/
FoamFile
{
    version     2.0;
    format      ascii;
    class       volScalarField;
    location    "40";
    object      sigmaxz;
}
// * * * * * * * * * * * * * * * * * * * * * * * * * * * * * * * * * * * * * //

dimensions      [1 -1 -2 0 0 0 0];

internalField   nonuniform List<scalar> 
1000
(
6.39663e-10
4.32872e-09
-3.49421e-09
-2.58094e-09
5.93117e-09
3.00624e-09
-2.26143e-09
-4.91611e-10
-6.83708e-09
0
-3.3148e-09
0
2.72712e-09
-5.051e-09
-2.50216e-09
4.91536e-09
2.08515e-09
2.05384e-09
0
0
0
0
3.05853e-09
2.12962e-09
3.26762e-11
-4.80171e-09
-3.90904e-10
-2.19527e-09
2.79529e-09
7.0965e-10
-1.6552e-09
-1.60352e-09
-1.64602e-09
1.78301e-09
4.64555e-09
-2.55767e-09
-2.33255e-09
-5.60411e-09
-3.53903e-09
2.67223e-09
-2.14735e-09
3.85858e-11
-4.83333e-09
-7.63894e-10
1.7206e-09
4.43323e-09
1.0655e-09
1.33844e-09
-6.46286e-09
-1.81438e-09
-4.05081e-09
3.1902e-11
-3.19009e-11
-6.31556e-10
-2.94254e-09
-7.87325e-11
2.51237e-09
6.84697e-09
1.12159e-09
-3.04494e-09
1.66057e-09
-8.15909e-10
1.71948e-09
5.4535e-10
4.14026e-09
-3.94374e-09
-2.48139e-09
-2.49813e-09
1.34003e-09
-7.75051e-10
6.25884e-09
-3.85137e-09
-2.75261e-11
-7.47962e-10
6.85531e-09
7.83826e-10
3.59743e-11
-2.00842e-09
-4.72269e-10
-2.29459e-10
4.36842e-09
-3.68014e-09
-3.90788e-10
-6.65122e-10
5.04771e-10
3.35836e-09
-5.26419e-10
5.08963e-09
1.1981e-09
1.58324e-09
4.39337e-09
1.14396e-10
1.65622e-09
-1.50524e-10
7.23836e-12
3.05114e-09
-1.83076e-10
2.56394e-09
1.97565e-10
4.97118e-11
1.35679e-09
2.99895e-09
-1.82456e-09
0
-4.1049e-09
-4.29054e-11
4.47376e-09
2.26609e-09
2.60851e-09
2.70795e-10
8.12619e-11
1.84068e-09
-1.90527e-09
-1.81089e-09
0
-2.2653e-10
4.62925e-09
1.69402e-11
-1.02692e-08
1.60715e-10
-4.45695e-10
1.9117e-09
3.27971e-10
-1.78852e-09
0
-6.74922e-10
-9.51143e-10
2.82208e-09
3.01847e-12
-2.96209e-09
7.64423e-10
-1.4888e-09
4.18018e-10
0
2.99905e-09
6.37187e-09
-4.2669e-09
-6.86323e-09
2.8269e-10
7.10424e-10
-1.1315e-09
2.1575e-09
-6.85731e-10
3.59473e-09
5.5164e-11
-3.04792e-09
2.19113e-10
0
-5.35641e-09
2.8068e-10
-3.45507e-09
-2.67097e-09
-2.29983e-09
-1.65621e-09
1.18233e-09
2.66952e-09
2.65955e-11
-3.23791e-09
2.7951e-12
-1.12009e-09
-9.59277e-10
-5.33735e-11
-8.03613e-11
-3.32571e-09
3.58465e-09
-1.47338e-09
2.81355e-09
1.48846e-11
-1.56424e-09
-8.71564e-10
2.84975e-09
-2.44608e-09
1.4782e-09
-1.45264e-09
1.53239e-10
-2.09949e-09
-3.74732e-09
3.78553e-09
2.1682e-09
2.88243e-09
4.63409e-09
4.86389e-09
-7.23441e-11
5.18907e-10
2.00792e-09
1.69997e-09
3.82896e-09
-2.48287e-09
-2.37662e-09
6.75867e-10
8.70622e-11
1.20436e-09
-1.3355e-09
5.42469e-10
-4.31834e-11
-2.18098e-09
3.19195e-09
-1.1706e-09
-5.54621e-09
6.47487e-09
5.58744e-09
1.84764e-10
-8.10721e-09
-2.71814e-09
-2.15285e-10
0
0
2.65376e-09
6.46554e-11
5.24334e-09
1.678e-10
-6.97996e-11
1.40492e-10
-7.74194e-09
2.52964e-09
9.14303e-12
-2.53968e-09
2.51694e-09
-4.97363e-09
-2.50799e-09
8.38324e-09
1.75368e-10
-2.63474e-09
8.37356e-09
1.05704e-10
-8.15005e-09
2.57911e-10
0
5.523e-11
2.06813e-10
2.92087e-09
5.26306e-11
-2.53789e-09
2.55186e-09
2.57648e-09
-2.52551e-09
-2.52138e-09
-4.99916e-09
-4.1646e-11
1.65585e-09
2.69705e-09
2.67093e-10
-8.01049e-09
2.23255e-09
8.23077e-09
-8.00124e-09
-2.7775e-09
5.20764e-09
-4.81595e-09
-5.26165e-09
5.00396e-09
7.59121e-09
4.96901e-11
-2.52269e-09
2.47125e-09
8.65165e-12
-2.48562e-09
2.4254e-09
2.36576e-09
9.18526e-13
0
2.51567e-10
2.61237e-09
2.87096e-09
0
-2.27929e-09
-2.95257e-09
-5.07061e-09
-3.85358e-10
4.72339e-09
2.20724e-09
4.14946e-10
-2.04632e-09
2.31952e-09
2.36909e-09
-2.43644e-09
-7.6345e-12
7.21723e-09
-2.34466e-09
-2.41637e-09
4.95021e-09
-4.42872e-10
-5.51366e-09
2.61601e-09
6.22831e-09
-2.59341e-09
0
2.46201e-09
-6.83093e-10
-2.72503e-09
-4.33402e-09
-4.76799e-09
6.48941e-09
7.0532e-09
1.51957e-10
-2.24486e-09
1.88602e-10
7.56958e-11
4.74985e-09
2.34641e-09
2.77853e-09
1.1257e-10
-2.88043e-09
-8.15122e-09
2.56949e-09
4.96461e-09
-2.40845e-09
1.97251e-09
3.50319e-09
-6.97337e-09
-2.50182e-09
1.11892e-08
1.32764e-09
-6.93554e-09
-2.15422e-09
-4.92273e-09
-5.62431e-11
6.92639e-09
2.24071e-09
9.32236e-12
-2.73956e-09
2.27413e-09
6.56324e-10
-2.37731e-09
-9.38775e-10
4.46614e-10
3.34013e-09
-5.91954e-09
-3.48697e-09
5.72042e-09
-6.27687e-10
6.68984e-09
2.87005e-09
-6.39126e-09
3.72547e-09
1.13038e-10
-6.86155e-09
2.20205e-09
2.26535e-09
6.74765e-12
1.4164e-10
-2.16746e-09
-1.69774e-09
0
0
-5.0829e-09
6.31366e-09
1.17822e-08
-1.03248e-08
-7.21124e-09
4.30403e-09
1.7122e-09
9.93383e-10
5.13272e-09
1.5098e-10
-5.34182e-09
0
-2.44095e-10
6.20459e-11
2.25785e-11
-1.57508e-10
7.40219e-10
-8.69108e-10
-8.40432e-10
3.74592e-09
1.70664e-09
-3.32749e-09
-3.10999e-09
1.46488e-09
3.242e-09
-1.65245e-09
9.31741e-11
-5.69191e-09
-1.33868e-10
5.05294e-10
-8.21385e-11
7.87348e-09
-1.07916e-10
-8.21406e-09
-1.36607e-09
2.64052e-11
-6.45678e-10
1.86241e-09
-6.40584e-09
-5.65348e-09
4.76636e-09
5.52718e-09
5.65728e-09
-3.86223e-09
1.61385e-10
-5.6685e-10
-5.59007e-09
0
9.26236e-10
-1.21231e-10
-6.80623e-10
1.84166e-09
2.3053e-10
-3.19257e-11
-2.1431e-11
2.4688e-09
-6.71382e-10
-1.12502e-09
5.98359e-10
6.39485e-10
1.88864e-10
-2.24724e-09
-1.31286e-09
2.99259e-09
-3.73564e-10
1.0059e-09
-2.98472e-10
0
-2.23737e-10
1.87514e-10
-1.52777e-10
-1.64462e-09
8.34726e-11
4.99561e-11
5.74269e-12
1.68391e-09
0
-1.761e-09
2.97151e-23
-3.12222e-24
1.25136e-23
2.44345e-23
-1.76118e-09
0
1.76125e-09
-1.8189e-23
-1.76132e-09
1.76135e-09
1.21177e-23
-1.76142e-09
-1.21005e-23
1.76147e-09
1.7615e-09
-1.21047e-23
-4.03406e-24
1.76172e-09
7.66136e-13
-1.76023e-09
0
1.76194e-09
1.76288e-09
-1.76025e-09
-1.75935e-09
1.76122e-09
1.88959e-12
9.5557e-13
1.93021e-12
1.94731e-12
9.81337e-13
1.97634e-12
1.98817e-12
-1.76148e-09
1.00267e-12
1.00313e-12
1.18384e-13
6.80121e-09
-7.40718e-13
-3.52135e-09
5.94297e-23
3.52307e-09
0
-8.91803e-13
-3.52241e-09
7.27269e-23
3.52255e-09
9.63442e-13
-1.21002e-23
-7.26004e-23
-9.96262e-13
-3.63014e-23
-3.52291e-09
2.34607e-23
3.52402e-09
1.01293e-12
1.31702e-13
-1.34289e-12
1.76037e-09
-1.50399e-12
1.17341e-23
1.7595e-09
-1.76202e-09
-1.76208e-09
-1.81206e-12
1.76126e-09
1.76034e-09
-1.93136e-12
-1.76233e-09
-1.76337e-09
-1.00402e-12
1.75941e-09
-1.01725e-12
3.91128e-25
1.75946e-09
-2.02922e-12
-2.88585e-13
5.06081e-11
6.86485e-13
-1.76114e-09
0
1.76118e-09
1.76036e-09
-1.76036e-09
-1.76125e-09
1.76128e-09
-9.45607e-13
6.06096e-24
-9.82474e-13
0
1.00834e-12
0
-1.02157e-12
-1.76148e-09
6.04346e-24
-6.9866e-27
-2.01791e-24
1.7144e-09
-6.64125e-13
-1.76118e-09
3.04953e-23
-1.79851e-23
-8.27664e-13
-8.60781e-13
-1.76128e-09
0
1.76039e-09
-4.24036e-23
-1.76237e-09
1.76141e-09
-1.01181e-12
-1.76145e-09
-1.02581e-12
1.76148e-09
1.76149e-09
7.00679e-27
-4.03253e-24
-5.96583e-13
-6.47702e-13
-6.95557e-13
0
-7.8121e-13
0
-8.54095e-13
0
0
0
-9.64401e-13
0
0
-1.01613e-12
0
0
0
-1.0309e-12
-1.02537e-12
-1.76854e-13
-1.71591e-09
0
6.86952e-13
0
7.7528e-13
8.14596e-13
0
0
0
9.41278e-13
9.65834e-13
9.8764e-13
0
0
0
1.04162e-12
0
1.04286e-12
1.03801e-12
1.87233e-13
-5.19198e-09
6.35165e-13
5.67304e-24
1.17378e-23
1.76134e-09
-1.76053e-09
-1.76051e-09
0
1.76139e-09
1.76235e-09
-6.0569e-24
-1.76045e-09
-1.76145e-09
1.03021e-12
1.76148e-09
1.05473e-12
3.83846e-25
1.76148e-09
-7.38852e-27
-2.01687e-24
1.76137e-09
-1.19254e-23
-1.76137e-09
0
1.76138e-09
1.76139e-09
-1.7614e-09
-1.76141e-09
1.76142e-09
-2.40407e-23
-3.77915e-25
1.19361e-23
-7.00694e-27
3.65439e-23
-1.21323e-23
1.21287e-23
-1.76149e-09
7.45746e-27
-1.20934e-23
1.44409e-27
-5.17857e-09
-6.0435e-24
-1.90743e-25
1.25156e-23
1.76142e-09
-1.76142e-09
-1.76143e-09
0
1.76145e-09
1.76146e-09
6.65866e-27
-1.76149e-09
-1.7615e-09
1.2101e-23
1.76151e-09
-3.91132e-25
3.9113e-25
1.76148e-09
-1.20931e-23
1.53258e-27
5.84524e-11
6.67188e-13
-1.76147e-09
0
1.76146e-09
1.76062e-09
-1.76058e-09
-1.75964e-09
1.76148e-09
-9.71475e-13
-4.04829e-25
-1.01657e-12
2.07474e-12
1.05861e-12
2.16252e-12
-1.10507e-12
-1.76151e-09
0
-1.21008e-23
0
1.69606e-09
-6.9124e-13
-1.76151e-09
1.17394e-23
8.41211e-24
-8.70559e-13
3.5221e-09
-1.7615e-09
-3.52301e-09
1.76052e-09
4.50078e-26
1.7605e-09
1.76154e-09
-1.06661e-12
-1.76155e-09
-3.52421e-09
1.76153e-09
1.76151e-09
6.05041e-24
-2.01681e-24
-6.05078e-24
-7.22351e-13
-1.07243e-26
0
1.17908e-26
9.03143e-13
-9.38808e-13
-1.94044e-12
0
1.01981e-12
-2.42096e-23
1.05239e-12
-2.12808e-12
-1.07528e-12
-2.18004e-12
1.11322e-12
0
-1.65606e-26
2.41847e-23
-4.03739e-24
-1.76164e-09
6.06297e-24
5.68024e-24
1.17405e-23
1.76159e-09
-1.76158e-09
-1.76157e-09
0
1.76156e-09
1.76155e-09
-1.81446e-23
-1.76155e-09
-1.76156e-09
0
1.76159e-09
-6.46161e-24
4.0656e-25
1.76159e-09
1.21098e-23
-2.01877e-24
-7.4897e-13
0
3.01941e-24
0
-3.02525e-24
-1.21086e-23
0
0
0
-6.04306e-24
-6.05821e-24
7.80813e-27
0
0
0
7.37355e-27
0
3.02474e-23
-7.91932e-27
-2.07336e-27
-3.30977e-09
1.76259e-09
2.34718e-24
1.98891e-25
1.76167e-09
-1.7606e-09
-1.76055e-09
0
1.7616e-09
1.76276e-09
6.05879e-24
-1.76036e-09
-1.76155e-09
1.17161e-12
1.76154e-09
1.0674e-12
-1.19371e-23
1.76168e-09
1.24076e-26
6.00053e-29
1.76267e-09
9.05171e-13
-1.76273e-09
0
1.76066e-09
1.7617e-09
-1.76053e-09
-1.76165e-09
1.76163e-09
-3.59863e-23
-1.25411e-12
-3.91145e-25
8.70146e-27
1.25309e-12
8.35419e-27
1.21287e-23
-1.76148e-09
-7.41551e-13
-3.80743e-13
-1.2789e-13
-1.63225e-09
-1.76185e-09
-1.76182e-09
0
1.76177e-09
1.76174e-09
-1.76171e-09
-1.76169e-09
1.76166e-09
-2.40609e-23
1.21258e-23
-3.95785e-25
-9.38588e-27
1.21155e-23
-9.45236e-27
1.21147e-23
-1.76123e-09
0
0
0
2.33716e-09
-5.44817e-10
-2.47438e-09
3.8547e-10
-4.31928e-11
2.75483e-09
7.91791e-10
-3.86337e-10
-1.0747e-09
0
1.0646e-11
2.36831e-09
2.35068e-09
1.32899e-09
-9.29821e-11
-3.37791e-09
-1.11187e-10
2.29016e-09
-3.11223e-11
1.51447e-09
-2.10495e-11
-2.35123e-09
-2.31798e-09
3.48471e-09
2.3204e-09
3.50595e-09
-1.55036e-10
-3.31284e-09
-4.32288e-11
-1.12075e-09
-3.1373e-42
1.12187e-09
-1.59886e-10
-1.32596e-09
1.25195e-09
-2.43686e-09
-3.27271e-09
2.449e-09
-9.66462e-11
3.88482e-09
1.1514e-09
1.20745e-09
0
-1.24362e-09
-1.16775e-09
6.54185e-11
-1.18504e-10
1.11488e-09
-8.4755e-11
-1.25813e-09
-2.31484e-09
1.2209e-09
3.52244e-09
-1.19573e-09
-1.24489e-09
1.28912e-10
1.26279e-09
1.18636e-09
8.95895e-11
-1.60824e-09
-3.13605e-42
-8.95711e-11
1.23383e-09
1.17724e-09
-3.68973e-09
-1.12172e-09
3.69737e-09
-2.64794e-09
-1.06711e-09
4.26377e-09
1.15933e-09
-4.28628e-11
2.17737e-11
2.74523e-11
-1.33171e-09
1.14578e-09
-5.47835e-11
-3.97623e-09
-9.26841e-12
2.69529e-09
2.03109e-11
-1.09814e-09
-1.18142e-09
3.68088e-09
6.80772e-12
-3.78897e-09
1.50061e-09
3.91664e-09
-2.92083e-10
-4.47303e-09
3.04628e-11
2.47476e-09
3.54387e-09
-2.50456e-09
4.37798e-10
-2.22207e-11
2.87097e-09
6.69534e-09
8.68893e-11
-3.35344e-09
-5.03213e-11
3.51223e-09
2.32463e-09
-3.64756e-09
-2.60135e-09
2.82631e-09
2.61285e-09
1.35456e-10
8.70802e-11
2.44833e-13
-2.40858e-09
-2.47303e-09
-1.22641e-09
-1.22227e-09
-2.7656e-09
-2.56306e-09
2.70653e-09
2.694e-09
4.47573e-09
1.02503e-09
1.23039e-09
1.22835e-09
-1.18871e-09
3.13391e-11
-2.69928e-09
2.44441e-11
3.83896e-09
-2.21447e-13
-1.50891e-13
-1.69305e-09
-3.13445e-42
2.87829e-11
4.46918e-11
1.26938e-09
2.22629e-11
4.79199e-11
-1.78888e-12
-1.40039e-09
-5.68897e-11
1.74016e-09
-3.1344e-42
0
-1.32899e-10
0
-2.75078e-09
2.16865e-10
4.18834e-09
4.32327e-09
-1.69615e-09
-4.64476e-09
-9.79066e-12
3.6955e-09
2.69452e-11
8.50287e-11
-2.75052e-09
-3.99908e-09
4.26859e-09
-1.70725e-11
1.55359e-10
1.55688e-09
-1.22564e-09
-3.70233e-09
1.70446e-10
2.35713e-09
1.83587e-10
-2.86505e-09
9.90665e-11
2.90538e-09
-2.84782e-11
-9.16502e-12
3.51026e-14
5.61386e-11
3.57411e-09
-1.29254e-10
-3.89396e-09
0
-1.10594e-10
1.48792e-09
3.05395e-09
-1.94461e-09
-3.69579e-09
2.50062e-09
3.7278e-09
-3.68202e-09
-1.3647e-09
-6.08295e-11
0
-4.42649e-11
2.85583e-11
-7.25652e-14
3.77583e-09
2.34661e-09
-1.04321e-09
1.39208e-09
1.20706e-09
-1.48039e-09
3.49563e-11
-1.23863e-10
1.58519e-09
1.29753e-09
)
;

boundaryField
{
    left
    {
        type            symmetryPlane;
    }
    right
    {
        type            calculated;
        value           nonuniform List<scalar> 
30
(
2.89808e-13
-2.78988e-13
4.42934e-16
1.16334e-13
-3.34686e-13
2.44338e-13
1.50919e-13
5.37316e-13
-1.44445e-13
-4.80872e-13
-2.46429e-14
1.33346e-27
-3.20513e-13
-3.0501e-13
5.73685e-13
1.8521e-27
-1.7874e-27
2.44294e-13
-2.35329e-13
2.26427e-29
-1.53562e-27
-1.51146e-27
0
-4.33231e-29
2.80545e-27
1.25501e-27
1.07202e-27
-1.32904e-29
-1.78473e-13
0
)
;
    }
    down
    {
        type            symmetryPlane;
    }
    up
    {
        type            calculated;
        value           nonuniform List<scalar> 
30
(
3.77583e-09
2.34661e-09
-1.04321e-09
1.39208e-09
1.20706e-09
-1.48039e-09
3.49563e-11
-1.23863e-10
1.58519e-09
1.29753e-09
-1.63225e-09
-1.76185e-09
-1.76182e-09
0
1.76177e-09
1.76174e-09
-1.76171e-09
-1.76169e-09
1.76166e-09
-2.40609e-23
1.21258e-23
-3.95785e-25
-9.38588e-27
1.21155e-23
-9.45236e-27
1.21147e-23
-1.76123e-09
0
0
0
)
;
    }
    hole
    {
        type            calculated;
        value           nonuniform List<scalar> 
20
(
2.47478e-12
-3.35263e-09
0
-1.5193e-09
-1.93876e-09
-3.7615e-09
2.05099e-09
6.27633e-09
4.23727e-09
4.31262e-09
-1.69034e-10
-5.02616e-10
-4.17275e-10
1.1606e-09
-2.13662e-09
-2.68598e-09
-6.12738e-10
3.55917e-09
3.96916e-09
2.97796e-13
)
;
    }
    frontAndBack
    {
        type            empty;
    }
}


// ************************************************************************* //
