/*--------------------------------*- C++ -*----------------------------------*\
  =========                 |
  \\      /  F ield         | OpenFOAM: The Open Source CFD Toolbox
   \\    /   O peration     | Website:  https://openfoam.org
    \\  /    A nd           | Version:  dev
     \\/     M anipulation  |
\*---------------------------------------------------------------------------*/
FoamFile
{
    version     2.0;
    format      ascii;
    class       volScalarField;
    location    "40";
    object      sigmaxy;
}
// * * * * * * * * * * * * * * * * * * * * * * * * * * * * * * * * * * * * * //

dimensions      [1 -1 -2 0 0 0 0];

internalField   nonuniform List<scalar> 
1000
(
45328.1
14024.5
-1882.08
-9744.04
-13468.7
-15157.8
-15897.5
-15910.4
-15619.3
-13578.7
91357.5
29961
-3050.65
-20747.9
-30390.9
-35568.4
-38208.3
-38922.4
-37636.4
-33356.8
126880
42475.4
-3501.27
-29099.7
-43351.4
-51045.1
-54638.2
-55187.2
-53196.2
-48902.7
149960
51522.8
-3098.08
-33722.3
-51065
-60316.4
-64511.3
-65091
-63066.5
-59479.5
158460
56022.4
-1600.19
-34550.8
-53276.1
-63347.5
-67889.2
-68682.8
-67072.9
-64335.2
153022
55421.1
-168.737
-32060.7
-50423.1
-60376.6
-65015.5
-66115.4
-65012.9
-63074.3
134068
49647.9
1215.79
-26895
-43170.3
-52142.4
-56452.7
-57710.9
-57133.7
-55912.2
104425
39503.4
2121.67
-19660.6
-32385.4
-39490.9
-43036.4
-44244.2
-44063.2
-43426.8
66590
26684.3
3346.21
-10420.6
-18535.7
-23138.2
-25494.1
-26414.5
-26465.2
-26305.3
23567.1
13688.9
6620.51
2171.71
-562.135
-2203.44
-3134.42
-3625.71
-3825.88
-3987.88
-29734
-14974.1
-4769.57
1209.05
4418.79
6065.15
6776.49
6974.34
6894.52
6761.68
-86117.4
-21373.6
11241.9
27490.8
35541.8
39063.9
39972.1
39445.7
38165.1
36797.6
-132681
-30571
19710.1
44819.4
57170.8
62628.9
64105.2
63309.6
61277.4
58992.2
-163300
-39247.5
23049
54257.8
70054
77277.4
79537.1
78853.8
76485.2
73626.3
-174588
-45687.8
20912.2
55885.6
74027.8
82758.4
85929.1
85690.4
83386
80251.1
-165877
-48798.5
15819.7
50744.1
69761.6
79449.4
83543.9
84010
82084.7
78883.9
-140398
-44762.1
9742.88
41147.6
58969.6
68736
73473.1
74743.4
73446.5
70251.2
-103153
-35201.1
5194.73
29408.2
43832.5
52359.3
57176.9
59231.8
58734.1
55614.7
-55925.6
-20235.4
2353.56
16628.6
25841.2
31780
35867
38275.7
38971.5
36942.8
-5619.7
-3358.14
-297.658
3008.53
5917.63
8345.92
10451.4
12136.3
14137.1
15524.4
6197.28
5372.68
4788.12
4245.67
3713.97
3188.69
2679.5
2183.6
1702.84
1229.95
758.148
287.083
-201.615
-719.936
-1280.27
-1862.83
-2491.57
-2998.81
-2991.98
-1689.85
33902.6
30156.3
27353.5
24803.7
22418.8
20182.7
18104.6
16161.3
14337.6
12596.7
10912.2
9243.81
7545.87
5812.06
3960.47
2017.82
2.72132
-1891.36
-3583.79
-5225.64
54471.9
48963.3
44868.9
41051.7
37400.2
33930.4
30663.8
27589.8
24680.3
21892.4
19174.2
16477.6
13735.2
10882
7870.95
4709.77
1384.84
-1900.98
-5171.68
-9063.5
68164.5
62053.2
57670.1
53414.1
49184.8
45046.7
41057.8
37234.8
33559.9
29992.7
26476.7
22941.2
19305.8
15504.6
11442.4
7097.4
2495.17
-2174.24
-7042.39
-12996.9
74491.7
68972.6
65349.8
61554.6
57520.9
53367.4
49203.1
45085.1
41026
37001.3
32959.8
28832.1
24519.2
19910
14909.4
9478.74
3592.32
-2498.61
-8937.47
-16918.9
73355.4
69511.8
67608.7
65147.6
62084.7
58593
54823.8
50892.7
46851.9
42715.9
38452
33991.6
29227.3
24035.4
18255.4
11801.3
4657.35
-2889.81
-10911.3
-20744.3
65238.7
63873.6
64420.9
64026.8
62625.8
60414.1
57569.3
54277.9
50636.7
46720.6
42521.6
38001.8
33044.5
27492.1
21149.3
13858
5505.32
-3553.35
-13199.9
-24426
51286
52846.5
56386.2
58555
59427.9
58960.5
57546.9
55260.1
52404.3
48990
45157.6
40815.3
35925.2
30277.5
23652
15805.2
6539.21
-3946.52
-15275.7
-28047.4
33510.6
38605.4
45144.3
50240.8
53577.8
55319.7
55635.6
54812.8
53040.2
50514.3
47303.8
43456.5
38868.6
33421.8
26836.6
18907.1
9177.55
-2126.96
-15457.5
-32171.3
13874.1
22976
32068.9
39764
45700.6
49895.3
52397.7
53447
53232.8
51952.8
49754
46656.9
42691.3
37646.5
31433.8
23711
14330.9
2410.47
-13658.4
-35768
4467.12
13804.3
22323.4
30208.9
37100.7
42543.7
46533.7
49034.4
50228.6
50203.4
49095.1
46935.8
43702.6
39301.3
33571
26430.6
17472.1
5639.57
-11786.9
-38343.9
-1552.05
7347.43
15476.4
23038.2
29891.5
35712.6
40296.3
43579.1
45585.6
46377.9
46009.2
44497.1
41806.9
37834.2
32477.2
25741.1
17366.8
5719.03
-12168.1
-39401.4
-7449.36
1180.81
8958.03
16094
22684
28517
33377
37121.3
39696.2
41089
41298.9
40305.2
38051.2
34432.7
29370
22939.7
14938.1
3751.71
-13541.9
-39122.7
-13593.6
-5141.08
2461.91
9325.88
15641.1
21345.4
26261.4
30234.4
33155
34959.4
35592.5
34997.2
33091.1
29758.8
24929.6
18745
11117.1
533.541
-15486.2
-37962.7
-19298
-11191.3
-3813.65
2835.28
8934.51
14482.4
19358.4
23416.9
26532.9
28606.4
29546.5
29261.6
27645.6
24567.6
19967.8
14042.1
6819.42
-3001.02
-17383.8
-36434.8
-24059.4
-16531.7
-9499.37
-3102.51
2780.99
8158.7
12941.4
17001.6
20213.8
22462.4
23633.7
23611.6
22268.3
19461.4
15136.6
9529.02
2781.36
-6154.77
-18876.9
-34908.6
-27672.6
-20795.7
-14270.4
-8231.35
-2622.57
2544.33
7186.37
11187.9
14429.6
16792.9
18154.5
18383
17334.8
14853.5
10883.6
5690.17
-503.028
-8592.54
-19846
-33514.8
-29985.6
-23855.1
-17945
-12369.1
-7118.74
-2225.93
2219.01
6105.99
9323.15
11758.4
13289.7
13780.8
13077.8
11010.3
7506.35
2815.62
-2808.55
-10113
-20244.3
-32315.9
-31011.4
-25659.8
-20435.3
-15411.2
-10597.6
-6049.17
-1864.85
1846.68
4983.8
7447.54
9128.66
9900.37
9606.88
8059.32
5148.21
1072.41
-3955.55
-10676.7
-20080.1
-31240.3
-30877.6
-26291.8
-21750.5
-17315.1
-12992.5
-8850.13
-4991.7
-1523.15
1466.29
3898.38
5690.89
6742.71
6913.56
6003.62
3847.4
525.557
-3877.62
-10139.9
-19285.2
-30277.4
-29718.9
-25800.1
-21914.7
-18068.4
-14265
-10574.3
-7101.92
-3949.61
-1191.86
1119.81
2943.78
4228.59
4878.05
4706.3
3489.84
1156.37
-2460.35
-8387.98
-17673.9
-29315.3
-27579
-24237.8
-20951.2
-17664.4
-14381.8
-11167.1
-8129.32
-5364.83
-2936.79
-866.972
851.658
2241.49
3294.45
3895.05
3814.87
2793.65
309.742
-5105.49
-14979.8
-28328.9
-24476.5
-21628.3
-18853.6
-16072.4
-13279
-10537
-7957.73
-5638.29
-3635.93
-1953.44
-535.695
724.648
1953.48
3194.49
4328.73
5023.51
4293.91
-195.863
-10681.8
-26989.7
-20466.3
-17979.9
-15586.1
-13216.4
-10838.3
-8528.12
-6391.88
-4539.72
-3033.63
-1875.9
-992.516
-199.988
765.839
2222.09
4346.2
6984.35
8822.61
6513.82
-4316.24
-25110.3
-15535.4
-13224.2
-11062.6
-8958.35
-6884.46
-4910.55
-3151.39
-1729.54
-728.04
-180.59
-30.264
-94.67
4.91951
838.918
3122.35
7360.17
12404.8
13744.4
4511.26
-21670.7
-9604.37
-7287.09
-5192.46
-3185.39
-1269.52
507.129
2008.34
3106.58
3681.57
3646.67
2988.59
1789.8
396.8
-513.48
356.835
4473.59
12103.6
19352.5
15115.2
-16174.6
-2687.39
-243.831
1961.19
4011
5926.86
7646.54
9044.29
9978.62
10296.4
9862.31
8538.57
6261.91
3105.44
-427.205
-2962.88
-2002.04
5177.9
17332.1
22915.9
-6820.73
4910.49
7519.38
9889.8
12045.2
14035.2
15791.6
17212.2
18147.6
18439.3
17912.8
16346.6
13511.2
9138.74
3232.84
-3603.79
-9145.37
-8842.6
2816.09
20133.3
5381.61
12742.3
15553.2
17988.6
20188.5
22203
24004.3
25501.4
26568.7
27067.2
26820.4
25624.6
23179
19092.4
12849.3
3939.69
-7352.85
-17517.5
-17527.9
252.818
14661.1
22596.8
25240.7
27550.1
29638.8
31573
33362.9
34952.5
36253.7
37161.4
37559.5
37331.7
36338.4
34417.9
31297
26522.9
19278.2
8596.09
-4936.19
-14935.8
-35.5677
-3755.9
-24727.9
-40706.4
-52200.8
-58601.3
-59308
-54128.8
-43293.6
-27553.7
-7979.74
-3289.18
-22322.7
-36948.6
-47678.2
-54011.5
-55419.8
-51647.7
-42811.6
-29703.3
-13323
-3001.51
-20600.8
-34316.7
-44699.5
-51343.3
-53755.5
-51609.1
-44900.9
-34094.3
-19629.1
-2721.03
-18980.9
-31799.1
-41781.1
-48613.1
-51846
-51137.3
-46377
-37766.5
-25301.6
-2406.51
-17352.7
-29248.7
-38747
-45621.1
-49485.5
-49995.4
-46973.3
-40368.3
-30043.8
-2067.19
-15740
-26693.2
-35634.4
-42418.4
-46719.7
-48200.8
-46618.6
-41799.1
-33552.1
-1705.48
-14147.7
-24163.5
-32496
-39073.6
-43623.5
-45824.4
-45409.4
-42118
-35806.5
-1341.07
-12612.7
-21696.6
-29382
-35655.3
-40287.2
-42982
-43448.1
-41400.3
-36768.6
-968.476
-11116.5
-19294.4
-26307.9
-32195
-36770.4
-39758.2
-40859.6
-39782
-36568.6
-604.15
-9685.73
-16967.6
-23289.3
-28726.3
-33130
-36239.1
-37752.5
-37408.8
-35333.9
-234.685
-8284.03
-14699.6
-20316
-25253.2
-29384.3
-32472
-34225.6
-34413.4
-33224.4
124.461
-6944.31
-12494.7
-17398.7
-21787.7
-25564.7
-28507.5
-30342.2
-30856.4
-30300.7
489.884
-5621.44
-10332.8
-14519.4
-18315.3
-21665.4
-24350.9
-26115.8
-26769.7
-26624
835.67
-4348.27
-8234.99
-11676.6
-14853
-17689.9
-20013.9
-21553.2
-22181.1
-22225.5
1190.18
-3089.57
-6171.92
-8865.68
-11368.3
-13614.2
-15453.1
-16636.3
-17069
-17091.7
1533.68
-1906.97
-4175.19
-6120.34
-7880.79
-9460.64
-10683.1
-11365.2
-11406.4
-11175.7
1850.5
-784.73
-2303.46
-3466.09
-4451.7
-5260.32
-5760.59
-5767
-5235.12
-4526.2
2057.91
148.979
-631.501
-1009.62
-1195.22
-1170.91
-853.775
-68.7541
1178.38
2442.34
1927.17
856.203
827.476
1229.09
1913.83
2854.03
4119.62
5812.59
7828.25
9787.31
802.138
1394.48
2293.3
3629.8
5435.71
7665.69
10272.4
13204.6
16324
19520
)
;

boundaryField
{
    left
    {
        type            symmetryPlane;
    }
    right
    {
        type            calculated;
        value           nonuniform List<scalar> 
30
(
-1106.83
-5544.72
-9990.39
-14453.3
-18904.9
-23148.7
-27033.6
-31144.3
-36251.2
-41943.5
-45895.5
-47130.1
-46190.8
-43956.6
-41338.4
-38888
-36845.6
-35206.5
-33914.6
-32899.1
-32150.8
-31645
-31336.6
-30996.7
-30206
-28003.7
-22444.6
-8625.97
25720.6
98593.4
)
;
    }
    down
    {
        type            symmetryPlane;
    }
    up
    {
        type            calculated;
        value           nonuniform List<scalar> 
30
(
328.732
1462.68
2572.26
4113.25
6199
8776.06
11746.3
15016.6
18519.2
22148.9
25238.2
27737.5
29984.1
32024.1
33927.6
35711.8
37331.9
38706.6
39737.3
40327.6
40385.6
39837.4
38610
36644.2
33877.2
29987.3
23336.1
8657.25
-26176
-98654.1
)
;
    }
    hole
    {
        type            calculated;
        value           nonuniform List<scalar> 
20
(
51219.2
103878
144769
170788
180365
173792
152264
118365
74953.1
25260.3
-32407.4
-101614
-158483
-194663
-207265
-194990
-164056
-119890
-65305.6
-7435.49
)
;
    }
    frontAndBack
    {
        type            empty;
    }
}


// ************************************************************************* //
