/*--------------------------------*- C++ -*----------------------------------*\
  =========                 |
  \\      /  F ield         | OpenFOAM: The Open Source CFD Toolbox
   \\    /   O peration     | Website:  https://openfoam.org
    \\  /    A nd           | Version:  dev
     \\/     M anipulation  |
\*---------------------------------------------------------------------------*/
FoamFile
{
    version     2.0;
    format      ascii;
    class       volScalarField;
    location    "40";
    object      sigmayy;
}
// * * * * * * * * * * * * * * * * * * * * * * * * * * * * * * * * * * * * * //

dimensions      [1 -1 -2 0 0 0 0];

internalField   nonuniform List<scalar> 
1000
(
-79120.5
37503
98656.3
130989
147839
155050
156272
153254
147119
141859
-102092
5494.09
62882.3
96262.2
115197
125445
129335
129527
127147
127488
-110944
-20598.7
30154.2
61185.5
80769.6
92786.5
99461.5
102751
103803
107118
-106726
-39359.7
97.2426
27003.4
45613.5
58616.2
67148.7
72742.9
76470.7
81649.3
-94216.5
-52489.3
-25356.1
-4539.88
11859.3
24591.7
34213.9
41519
47069.6
53460.1
-76328.1
-59863.4
-46340.8
-32128.9
-18843
-6994.4
2935.91
11205.3
18155.3
25370.3
-57246
-63331
-62105.4
-54658.9
-44724.3
-34347.8
-24563.4
-15710.4
-7900.02
-183.144
-39915.6
-64191.2
-73140.4
-71502.5
-64712.6
-55814.8
-46454.1
-37419.7
-29009.1
-20966.3
-26363.6
-63193
-79810.6
-82468
-78195.7
-70554.5
-61642.6
-52489.4
-43718.5
-35492.3
-18727.3
-62301.3
-82578.9
-87497.2
-84373.3
-77368.2
-68575.3
-59404.6
-50362.9
-41757.4
637523
453724
338462
262727
210472
172629
143788
120563
100976
83783.1
614702
440392
336783
267311
218192
181789
153499
130431
110683
93109.2
557940
416926
329315
268925
224838
191278
164522
142234
122805
105169
474077
381814
317352
268816
231758
202319
178035
157172
138520
121091
377090
336927
298298
264764
236387
212287
191353
172652
155377
138542
271491
282468
272088
254630
236268
218488
201772
186006
170785
155072
174258
225284
239139
237982
229935
218951
206952
194689
182229
168158
88804.5
168309
203811
216425
217573
212781
205360
196743
187193
175031
16227.9
118312
168222
191113
199388
199793
196200
190512
183277
173566
-39091.9
74683
133516
162754
176226
180403
179623
175313
170706
162405
68362.3
53696.7
40313.9
27762.8
15665.2
3627.16
-8572.3
-21182
-34314.6
-48152.6
-62760.6
-78300.8
-94807.4
-112473
-131358
-151696
-173540
-197195
-221934
-246552
76547.4
60641.5
46467.2
33281.1
20597.8
8096.71
-4530.76
-17442.9
-30859.1
-44859.1
-59634.1
-75225.7
-91833.7
-109496
-128440
-148735
-170641
-194384
-220107
-248980
87500.2
70225.3
55235.5
41247.4
27805
14617.1
1401.62
-11999.3
-25799.5
-40090.9
-55067.1
-70793.8
-87476.1
-105179
-124146
-144485
-166494
-190486
-216691
-246025
102163
83395.1
67522.2
52575.3
38160.5
24051.7
10025.2
-4066.11
-18414.3
-33130.5
-48402.8
-64329
-81122.5
-98900.2
-117913
-138329
-160480
-184685
-211117
-240569
118481
98603.9
82103.7
66293.8
50889.7
35772.6
20820.3
5912.36
-9100.26
-24348.1
-39998.3
-56190.5
-73128.7
-90987.3
-110042
-130532
-152775
-177116
-203619
-232969
134347
114266
97692.4
81360.4
65127.3
49077.9
33188.8
17432.9
1680.7
-14159.9
-30270.2
-46770.8
-63902.9
-81834.9
-100896
-121328
-143580
-167908
-194470
-223367
147546
128644
112779
96478
79753.8
63027.8
46317.2
29802.9
13307.5
-3119.71
-19741
-36567.3
-53930.2
-71894.7
-90909.2
-111108
-133071
-157033
-183572
-212008
156059
139858
126039
110257
93919.1
76685.5
59703.5
42356.7
25460.3
8229.06
-8653.25
-26100.6
-43457.6
-61792.6
-80388.5
-100528
-121387
-144880
-169880
-200341
158308
147832
136531
122850
107051
90406.3
72944.6
55486.9
37722.5
20229.6
2443.95
-15129
-33262.1
-51374
-70459.5
-89672
-110246
-131116
-155650
-187807
149575
145194
138021
127684
114388
99295.5
82701.7
65511.1
47711.8
29887.9
11754.1
-6291.95
-24716.2
-43147.4
-62147.5
-81119.7
-100564
-119687
-142229
-172184
142125
136122
130185
121396
110329
96701.2
81796.5
65463.6
48771.4
31309.6
13941.9
-4006.74
-21705.2
-40039.7
-58017.2
-76624.3
-94203.4
-112181
-130487
-153954
134025
127123
121420
113955
104122
92105.4
78341.4
63320.6
47421.6
30966.1
14133
-2924.79
-20155.5
-37461.6
-54820.3
-72067.1
-88801.4
-104261
-119612
-134967
124458
118766
113101
106017
97090.5
86239.2
73761
59971.7
45251.5
29852.8
14032.5
-2084.2
-18335.8
-34652.1
-50880.6
-66876.3
-82146.4
-96178.9
-107960
-116492
113183
109385
104398
97845.6
89630.9
79761.2
68381.6
55765.4
42182.2
27911.9
13163.5
-1863.33
-17031.5
-32173.9
-47162.6
-61762.2
-75549.7
-87512.6
-96846
-100915
101556
99486.8
95429.4
89568.3
82079
73064
62672.4
51114.8
38631.3
25464.4
11835.5
-2057.21
-16038.8
-29936.2
-43568.7
-56672.9
-68807.8
-79298.6
-86532.9
-88375.4
90311.7
89488.8
86362.2
81288.3
74551.9
66347.4
56852.2
46267.6
34811.1
22712.7
10191.4
-2542.28
-15298.6
-27885.6
-40105.2
-51713.3
-62350.1
-71212.3
-77410.1
-78969.9
79683.5
79810.3
77441.3
73116.8
67126.1
59698.9
51040
41353.7
30854.9
19767.8
8318.79
-3271.72
-14795.2
-26051.5
-36845.1
-46954.9
-56108
-63983.1
-69497.9
-71598.6
69947.9
70627.6
68839.8
65175.9
59882.1
53190.2
45312.6
36459.2
26845.1
16699
6256.82
-4242.88
-14570.2
-24513.5
-33887.7
-42554.7
-50422.8
-57184.1
-62607.5
-65918.4
61115.3
62127.8
60722.7
57591.1
52914.5
46898.2
39744.4
31657.4
22851.7
13558.2
4026.36
-5480.55
-14700.1
-23396.9
-31395.7
-38618
-45122.8
-51151.6
-56407
-60888.4
53220.7
54308
53163
50452.6
46309.8
40903.9
34414.3
27028.4
18950
10406.4
1657.36
-7004.29
-15269.4
-22849.5
-29538
-35319.9
-40453.6
-45278.2
-50456.2
-56280.9
46137.3
47221.2
46214.3
43826.2
40140.4
35286.6
29407.9
22666.1
15237.9
7337.17
-780.218
-8795.14
-16341
-23032.9
-28570.4
-32878.1
-36307.8
-39806.1
-44218.6
-51099
39853
40785.2
39859.2
37730.2
34451.5
30105.5
24805.2
18665.2
11833.5
4480.04
-3155.33
-10758.2
-17898.6
-24066.7
-28746.2
-31674.5
-33149.6
-34263.5
-37308
-44699.2
34191.6
34959.8
34058.5
32148.7
29247.6
25392.6
20661.1
15115.8
8863.56
2009.93
-5252.69
-12660.7
-19762.1
-25927.9
-30328.5
-32208.7
-31431.7
-29425.4
-28987.7
-35515.5
29025.2
29566.6
28688.1
27010.4
24472.2
21136.9
16977.9
12079
6424.32
117.478
-6807.68
-14124
-21526.3
-28281
-33303.6
-35030.7
-32243.9
-25656.2
-19486.9
-21560.9
24108.7
24454
23620.6
22161.9
20035.3
17229.9
13722.3
9516.01
4584.5
-1077.66
-7504.92
-14665.8
-22421.9
-30258.3
-36962
-40124.7
-36863.1
-25645.3
-8820.93
289.729
19299.6
19388.4
18657.2
17427.2
15781.5
13530
10775.5
7330.12
3299
-1541.5
-7148.81
-13820.1
-21559
-30454.3
-39580.7
-46411.4
-46083.8
-31553.1
-483.389
34335.5
14281.8
14221.5
13545.7
12671.2
11470.6
9914.45
7893.58
5401.29
2333.64
-1352.21
-5843.68
-11352.8
-18312.4
-27219
-38196.2
-50036.3
-57317.4
-47448.8
-723.216
84677.9
8945.79
8779.22
8281.27
7800.04
7094.96
6243.29
5009
3510.64
1526.79
-837.981
-3871.9
-7643.4
-12754.8
-19877.9
-30329.6
-45467.9
-63481.6
-69368.5
-19475.6
149319
3657.36
3296.85
3133.83
2966.09
2815.55
2522.58
2116.37
1468.08
636.567
-494.721
-1907.42
-3802.77
-6416.02
-10357.3
-17202.7
-30018.2
-52173.4
-75695.5
-49715.4
199571
-1359.64
-1405.46
-1267.16
-1117.88
-910.198
-734.068
-532.62
-388.947
-237.668
-156.345
-91.7047
-140.343
-327.015
-858.813
-2392.92
-6638.41
-16910.3
-35002.6
-41472.5
66629.2
-34278.3
-28448.9
-14644.9
5263.36
29764.8
56920.7
84341.2
109424
129270
143388
-27831.3
-22712.4
-10367.8
7432.12
29360.5
53755.2
78643.2
101788
120331
133832
-22196.9
-17966
-7582.32
7426.88
25982.2
46773.5
68271.9
88697.6
105854
119815
-17104
-13579.1
-4837.01
7809.04
23466.1
41097.7
59501.2
77297.2
92851.2
106506
-12528.2
-9581.11
-2227.23
8397.33
21565.4
36443.3
52099.2
67465.6
81397.1
94116.5
-8494.12
-6041.14
147.445
9063.82
20106.8
32612.6
45863.1
59061.3
71358.6
82853.2
-5019.77
-2964.06
2249.18
9730.36
18977.6
29461.1
40628.3
51861.3
62551
72621.7
-2114.54
-382.389
4021.82
10309.6
18055.4
26833.3
36206.9
45706
54873.8
63522.8
238.057
1712.55
5450.64
10752.2
17251.6
24596.5
32440.4
40412.2
48181.9
55430.2
2024.85
3282.27
6488.64
10988.5
16462.2
22615.7
29169.9
35835.8
42344.4
48335.5
3271.2
4369.58
7146.79
10993
15626.9
20793.7
26273.2
31815.5
37211.2
42053.2
3986.43
4971.98
7399.74
10718
14662.8
19026.4
23611.4
28216.9
32647.6
36525.7
4222.22
5120.15
7257.45
10145.7
13524.6
17232.8
21076.9
24897.6
28511.1
31540.8
3981.79
4790.05
6705.03
9220.91
12147.2
15295.1
18544.6
21695.7
24618.4
26974.5
3234.26
4004.62
5720.28
7918.45
10444.4
13128
15865.6
18453.3
20790.4
22579.9
2067.91
2817.45
4318.13
6223.37
8349.72
10637.7
12884.4
15007.3
16839.1
18204.3
557.394
1268.74
2540.4
4095.83
5850.43
7702.74
9521.54
11204.7
12626
13597.2
-993.71
-320.17
635.202
1778.82
3116.11
4489.92
5854.02
7107.64
8154.24
8796.13
-2673.77
-2003.83
-1452.96
-751.418
87.1378
959.227
1827.78
2721.46
3445.39
3837.29
-3342.94
-2956.06
-2884.26
-2746.63
-2548.39
-2329.79
-2091.21
-1805.14
-1507.82
-1343.92
)
;

boundaryField
{
    left
    {
        type            symmetryPlane;
    }
    right
    {
        type            calculated;
        value           nonuniform List<scalar> 
30
(
-245647
-247864
-244850
-239364
-231755
-222149
-210688
-198773
-186226
-170734
-152994
-134359
-116402
-100987
-88677.4
-79186.2
-71876.9
-66036.1
-61045
-56282.9
-51162.7
-44666.5
-35678.4
-21952.7
-943.332
31418
78395.9
137334
185381
85754
)
;
    }
    down
    {
        type            symmetryPlane;
    }
    up
    {
        type            calculated;
        value           nonuniform List<scalar> 
30
(
-4851.49
-4939.75
-5021.44
-5122.58
-5215.02
-5271.48
-5271.29
-5197.54
-5040.85
-4815.3
-4524.43
-4195.26
-3860.32
-3509.76
-3141.29
-2749.59
-2328.32
-1873.77
-1384.67
-862.768
-311.24
266.729
870.646
1507.27
2200.23
3002.47
3968.05
5053.48
5693.94
2448.2
)
;
    }
    hole
    {
        type            calculated;
        value           nonuniform List<scalar> 
20
(
-108259
-124516
-124005
-110536
-88598.5
-62671.8
-36704.5
-14012.9
2855.87
11880.3
623456
597763
535628
446169
343561
235071
135943
50685.9
-20645.1
-73249.8
)
;
    }
    frontAndBack
    {
        type            empty;
    }
}


// ************************************************************************* //
