/*--------------------------------*- C++ -*----------------------------------*\
  =========                 |
  \\      /  F ield         | OpenFOAM: The Open Source CFD Toolbox
   \\    /   O peration     | Website:  https://openfoam.org
    \\  /    A nd           | Version:  dev
     \\/     M anipulation  |
\*---------------------------------------------------------------------------*/
FoamFile
{
    version     2.0;
    format      ascii;
    class       volScalarField;
    location    "40";
    object      sigmayz;
}
// * * * * * * * * * * * * * * * * * * * * * * * * * * * * * * * * * * * * * //

dimensions      [1 -1 -2 0 0 0 0];

internalField   nonuniform List<scalar> 
1000
(
6.86956e-10
4.6746e-09
-6.41578e-09
-2.78945e-09
1.09664e-08
3.25029e-09
5.56176e-09
-6.19416e-09
-3.82268e-09
0
2.68967e-09
0
-2.33432e-09
4.32307e-09
1.8217e-09
1.55962e-09
-1.74557e-09
-7.74293e-09
0
0
0
0
-1.87853e-09
3.18433e-09
4.88697e-11
-1.97648e-09
-5.4757e-09
1.32768e-09
4.18196e-09
2.63722e-09
1.41147e-09
-2.85865e-09
7.30926e-10
3.18099e-09
1.96383e-09
1.35414e-09
1.39755e-09
3.10573e-09
-3.83691e-09
1.61913e-09
4.41049e-10
8.3567e-11
2.36444e-09
-1.65558e-09
3.72976e-09
2.7039e-09
2.31021e-09
-3.2172e-09
-1.11192e-08
6.82365e-10
1.35057e-09
8.63412e-11
-8.63741e-11
-1.71045e-09
9.5813e-10
-2.133e-10
-1.04238e-09
4.80768e-11
-4.61951e-10
-1.60737e-09
-1.9624e-09
-2.88865e-09
-5.08399e-10
1.93205e-09
3.28581e-09
-3.32344e-09
-8.79428e-09
5.83376e-10
4.74949e-09
3.00365e-09
-1.33598e-09
6.11451e-10
-1.38235e-10
-3.75716e-09
2.76218e-09
3.93844e-09
1.80771e-10
3.03764e-09
-2.37329e-09
-2.66111e-09
6.06536e-10
2.05574e-09
-3.29822e-09
-5.61499e-09
4.26202e-09
3.76011e-09
-4.44562e-09
-6.03362e-10
-1.89984e-10
8.10029e-09
1.88531e-09
2.90742e-09
-3.50848e-09
-3.82795e-09
1.84108e-10
3.96943e-09
-4.6574e-09
-1.71344e-11
5.02628e-09
2.76548e-09
4.36667e-09
1.17582e-10
1.72428e-09
0
-1.6116e-10
2.8947e-09
1.75695e-10
2.65439e-09
-1.11091e-09
-3.44281e-09
4.31248e-09
-1.74683e-09
1.58177e-09
-2.14115e-10
0
2.88754e-09
5.4766e-10
2.00366e-12
-1.21502e-09
-1.4953e-09
2.08999e-09
-1.6092e-09
-1.76433e-09
-3.554e-10
0
2.81659e-09
3.96883e-09
-2.05245e-09
5.99954e-13
1.75655e-09
-4.22311e-09
-4.19002e-10
-1.74644e-09
0
4.05937e-09
1.79604e-09
-1.20285e-09
-1.93488e-09
-1.17998e-09
-2.18989e-09
4.13403e-09
2.87266e-09
1.65955e-09
1.32485e-09
2.03357e-11
-4.20829e-09
-1.36801e-09
0
-6.83176e-10
-1.02271e-09
5.46657e-09
-1.22886e-09
9.16419e-10
-7.62771e-10
-2.8613e-09
4.41634e-09
1.22549e-11
1.33026e-09
1.28797e-12
2.57358e-09
-5.34589e-10
-2.98324e-11
-4.49437e-11
1.94643e-09
2.00604e-09
2.49166e-09
-4.65602e-09
8.3324e-12
-2.26515e-09
1.70157e-09
-5.79694e-09
-1.63133e-09
9.86395e-10
-9.69686e-10
1.02317e-10
-4.88177e-09
-2.50275e-09
2.52846e-09
1.44827e-09
5.42198e-10
-4.50736e-09
1.34641e-09
-5.69573e-11
-3.82005e-09
-2.35585e-09
-2.34455e-09
3.01714e-09
2.9384e-09
-4.96004e-09
-9.31774e-10
7.98786e-11
1.11131e-09
1.20829e-09
-8.54272e-09
-3.98897e-11
1.92454e-09
6.65029e-09
6.63206e-10
-5.12519e-09
4.47781e-09
-1.14916e-09
-2.26739e-09
-1.10778e-09
1.05468e-11
3.45427e-09
0
0
-1.03008e-11
-1.17557e-09
-2.03619e-11
-3.56335e-09
1.194e-09
-3.60029e-09
3.01019e-11
1.20252e-09
-3.55786e-14
9.88719e-12
-9.80172e-12
-3.69307e-09
2.5295e-09
-8.53848e-10
-2.25735e-09
-1.10409e-09
-2.39586e-09
1.12359e-09
1.25685e-09
-2.34581e-09
0
-1.17302e-09
-2.38616e-09
-5.98682e-09
-1.36977e-11
-2.3557e-09
-2.89722e-11
-4.16451e-11
2.86972e-11
2.86631e-11
5.68538e-11
2.90075e-11
3.65337e-09
-4.82457e-11
-1.14398e-09
1.43197e-10
1.15125e-09
-2.4441e-09
1.29925e-09
8.94378e-11
-9.30901e-11
-2.31497e-09
1.37295e-10
-4.58843e-11
-1.13999e-10
-2.25442e-11
4.51722e-11
-2.36215e-11
-1.55067e-13
4.457e-11
1.21924e-09
6.25044e-09
-1.40254e-11
0
-1.12837e-09
-6.00119e-11
-1.35069e-10
0
-1.13697e-09
2.41343e-09
1.16448e-10
1.28943e-09
2.29381e-09
2.36973e-09
-2.53944e-09
-3.69666e-09
1.21247e-09
1.18956e-09
5.61064e-11
1.75912e-13
1.10013e-09
-1.28528e-09
2.89609e-09
2.01199e-09
1.15515e-09
1.3042e-09
-1.15779e-09
-3.73708e-09
1.01052e-10
0
-6.43864e-11
3.64816e-09
1.33166e-09
-2.43063e-09
-1.03983e-09
3.78652e-09
1.07844e-09
-1.31361e-09
-1.25764e-09
-2.6496e-09
-1.32899e-09
-2.70148e-09
9.47842e-10
4.97896e-10
-3.05215e-11
1.21296e-09
2.52592e-09
-1.16513e-09
-1.74374e-10
6.52516e-11
1.20966e-09
-3.93486e-09
1.41718e-10
1.63937e-10
2.24701e-09
6.40082e-09
1.88272e-10
-1.25034e-09
2.90142e-09
8.39159e-11
-1.52196e-09
1.27826e-09
-2.68947e-09
-5.78747e-10
-2.76966e-11
-1.18785e-09
6.08418e-11
2.38669e-09
-1.21446e-09
-2.632e-09
3.98794e-09
2.88723e-09
-4.10321e-09
2.61364e-09
-1.71187e-10
-2.84628e-09
-1.23481e-09
4.12979e-09
-1.59e-10
2.92098e-09
-5.66277e-11
-1.48252e-09
-1.42296e-09
-3.09924e-11
1.36571e-11
-1.1009e-09
0
0
1.38343e-09
-2.33249e-11
-1.70584e-09
-9.09754e-11
1.6704e-09
-9.23539e-11
1.39215e-09
-4.22619e-09
-4.42557e-09
-1.93807e-10
-7.09878e-09
0
2.97464e-09
-1.43781e-09
-4.39446e-09
3.11801e-11
-1.11235e-09
1.19141e-09
1.23298e-09
-2.57881e-09
-2.6864e-09
2.60417e-09
-2.50626e-09
3.32866e-10
2.61466e-09
4.43424e-09
-7.82216e-11
-1.35436e-09
1.52841e-10
-2.87607e-09
1.39842e-10
1.43791e-09
1.43798e-09
1.67118e-09
1.75915e-09
3.94923e-10
1.51604e-09
-4.10703e-10
-3.44864e-10
7.49366e-10
9.88109e-10
1.59661e-09
-3.2714e-10
1.96519e-09
2.57081e-10
-7.19696e-10
2.56303e-10
0
4.77867e-09
-1.94158e-10
4.85947e-09
-1.98345e-10
-3.32148e-09
-1.92844e-10
2.9179e-09
8.5866e-11
1.68537e-09
6.84072e-11
-1.70155e-09
5.17627e-09
3.37404e-09
1.71583e-09
-1.71634e-09
-5.15181e-09
-4.57527e-11
-3.37755e-09
-5.26501e-11
0
1.69603e-09
-1.68757e-09
-8.34483e-11
-1.66588e-09
1.06755e-10
1.20208e-10
1.34723e-10
-6.73257e-10
0
7.12321e-13
-6.06314e-24
-1.21258e-23
-2.34755e-23
-1.21109e-23
6.13265e-13
0
-6.09812e-13
-6.83835e-24
6.34818e-13
-6.58999e-13
-1.21046e-23
7.34566e-13
2.00939e-25
-8.4976e-13
-9.35008e-13
-6.44487e-24
-6.44345e-24
1.76106e-09
1.76182e-09
1.76254e-09
0
1.76105e-09
3.52273e-09
1.76234e-09
3.52391e-09
-6.56963e-13
3.52306e-09
1.76148e-09
3.52286e-09
3.52277e-09
1.76133e-09
3.52257e-09
3.52247e-09
8.95381e-13
1.76115e-09
1.76112e-09
1.76109e-09
-2.40097e-09
-1.76179e-09
1.76329e-09
-1.81791e-23
1.76026e-09
0
-1.76165e-09
1.40742e-12
-2.42319e-23
-1.41283e-12
1.76148e-09
-5.81637e-25
3.1217e-26
-1.76134e-09
1.71234e-26
1.75908e-12
-1.21114e-23
1.75915e-09
1.76114e-09
1.76113e-09
-3.52353e-09
-1.76254e-09
-3.52347e-09
6.04611e-24
-3.52414e-09
-1.76091e-09
-1.76088e-09
-3.52318e-09
-7.44352e-13
-1.76226e-09
-3.52294e-09
-1.76065e-09
-3.52196e-09
-1.76134e-09
-3.52347e-09
-1.76126e-09
-2.15892e-28
-3.52342e-09
-3.52234e-09
-3.52233e-09
2.28653e-09
1.76172e-09
7.95295e-13
0
-7.86185e-13
-1.76242e-09
1.76238e-09
7.80032e-13
-7.82913e-13
-1.7615e-09
-2.38612e-23
-1.76142e-09
0
1.76134e-09
0
-1.76127e-09
1.00355e-12
-1.21268e-23
-1.2123e-23
-1.21187e-23
-4.87922e-10
-1.76168e-09
8.0904e-13
-1.81671e-23
-1.77896e-23
-1.76161e-09
-1.76158e-09
8.13344e-13
0
-1.76231e-09
1.21449e-23
-1.76056e-09
-8.78934e-13
-1.76134e-09
9.45267e-13
-1.76128e-09
-1.03023e-12
-1.08347e-12
1.21231e-23
1.21316e-23
-1.76164e-09
-1.76164e-09
-1.76163e-09
0
-1.7616e-09
0
-1.76156e-09
0
0
0
-1.76144e-09
0
0
-1.76134e-09
0
0
0
-1.76125e-09
-1.76123e-09
-1.76123e-09
2.17382e-09
0
1.7616e-09
0
1.76158e-09
1.76156e-09
0
0
0
1.76145e-09
1.76142e-09
1.7614e-09
0
0
0
1.7613e-09
0
1.76127e-09
1.76125e-09
1.76124e-09
7.49568e-10
1.76157e-09
5.66894e-24
1.20957e-23
-8.64579e-13
1.76241e-09
1.7624e-09
0
-9.05742e-13
1.76052e-09
-1.21213e-23
1.76233e-09
9.64597e-13
1.76134e-09
-1.01784e-12
1.76131e-09
-1.20998e-23
-1.13061e-12
-1.2319e-23
-3.86745e-25
-7.93071e-13
-2.42452e-23
8.40791e-13
0
-8.78086e-13
-8.92853e-13
9.05856e-13
9.17868e-13
-9.29577e-13
2.42137e-23
2.38579e-23
1.20935e-23
-1.21e-23
-2.46599e-23
-1.20926e-23
6.04251e-24
1.0972e-12
1.21237e-23
1.21319e-23
1.21235e-23
5.99271e-10
1.81905e-23
1.21252e-23
-6.17219e-27
-8.89473e-13
9.07453e-13
9.23266e-13
0
-9.51127e-13
-9.6422e-13
1.19287e-23
9.90805e-13
1.00543e-12
-7.02411e-27
-1.04353e-12
2.37446e-28
-2.44582e-28
-1.14751e-12
1.21321e-23
1.21236e-23
2.6132e-10
1.76148e-09
8.47484e-13
0
-8.98813e-13
-1.76238e-09
1.76238e-09
3.52382e-09
-9.70517e-13
-1.76139e-09
-2.42482e-23
-1.76135e-09
3.52266e-09
1.76131e-09
3.52261e-09
-1.7613e-09
1.09792e-12
0
8.41699e-27
0
-2.25375e-10
-1.76145e-09
8.49105e-13
1.20948e-23
5.86246e-24
-1.76144e-09
-1.76333e-09
9.69989e-13
1.97537e-12
-1.76239e-09
3.63724e-23
-1.76237e-09
-1.0429e-12
-1.7613e-09
1.05814e-12
-1.75915e-09
-1.08507e-12
-1.13076e-12
-4.20379e-27
4.69215e-27
2.66739e-27
-1.76142e-09
-2.44447e-23
0
2.40535e-23
1.76142e-09
-1.76141e-09
-3.5228e-09
0
1.76137e-09
-1.21098e-23
1.76134e-09
-3.52263e-09
-1.76129e-09
-3.52254e-09
1.76126e-09
0
-2.44431e-23
-2.44604e-23
-2.44348e-23
7.72256e-13
-2.79283e-27
1.83794e-23
1.20944e-23
-9.13976e-13
9.41979e-13
9.6753e-13
0
-1.01375e-12
-1.03517e-12
1.21349e-23
1.07337e-12
1.08723e-12
0
-1.08683e-12
-1.21194e-23
2.41981e-23
-1.03838e-12
1.2312e-23
-1.19247e-23
-1.76136e-09
0
-1.25167e-23
0
3.92674e-25
-1.21177e-23
0
0
0
1.21277e-23
-1.17293e-23
1.2124e-23
0
0
0
1.21232e-23
0
-1.25307e-23
-1.21241e-23
-1.21259e-23
1.6825e-10
1.76053e-09
1.94426e-25
6.04986e-24
-9.11694e-13
1.7623e-09
1.76233e-09
0
-1.02418e-12
1.76031e-09
1.19248e-23
1.76245e-09
1.12785e-12
1.76133e-09
-1.15672e-12
1.76125e-09
-1.20918e-23
-8.81202e-13
2.48339e-23
3.91192e-25
1.76054e-09
1.76131e-09
-1.76048e-09
0
-1.76223e-09
-9.37788e-13
1.76231e-09
9.95044e-13
-1.02214e-12
2.14295e-26
-1.76136e-09
2.45263e-28
1.21e-23
1.76136e-09
1.20999e-23
6.04169e-24
1.11376e-12
-1.76119e-09
-1.76123e-09
-1.7619e-09
5.92994e-10
1.34768e-13
1.37282e-13
0
-1.42611e-13
-1.4492e-13
1.47327e-13
1.50384e-13
-1.54725e-13
-2.01447e-24
-1.16872e-27
-2.01662e-24
-4.03333e-24
-4.03482e-24
-4.03334e-24
-4.0352e-24
2.85792e-13
0
0
0
-5.63329e-09
-4.96163e-09
-2.51032e-09
1.91343e-10
2.47605e-09
5.03112e-09
-4.65961e-09
1.01341e-09
7.60481e-10
0
-2.76422e-09
-8.54054e-09
-5.69656e-09
-8.25001e-09
2.68396e-09
-9.81096e-10
6.87051e-09
-3.60523e-09
2.20992e-09
-6.05549e-10
5.46371e-09
5.74857e-09
2.96163e-09
-1.02679e-09
-3.10037e-09
7.78882e-10
6.31796e-10
-2.8567e-09
1.84666e-10
-3.32425e-09
-7.92227e-44
2.53625e-09
8.06973e-09
8.04715e-09
-2.95097e-09
1.13222e-09
-8.08343e-09
-1.4963e-09
2.58685e-10
-6.61938e-10
-7.18173e-11
-5.41203e-09
0
2.89598e-09
2.98033e-10
-2.44533e-09
4.71221e-09
6.06404e-09
2.30002e-09
6.92065e-09
1.35731e-10
-2.96723e-09
-3.03142e-09
2.86142e-10
2.77558e-09
-4.8173e-09
-5.53082e-10
1.69748e-09
-6.32294e-09
5.25475e-10
-6.87465e-44
7.96089e-09
-2.81556e-09
-1.95723e-10
1.05554e-09
1.30286e-10
9.26598e-10
-8.34842e-10
-5.98247e-09
-3.89948e-09
2.59398e-09
2.70414e-09
-6.43279e-11
-2.46639e-09
5.16052e-09
4.37973e-09
1.11088e-10
1.63549e-09
1.01111e-08
6.07308e-10
-5.27064e-09
-7.74584e-09
1.11931e-10
-7.1565e-10
-4.64715e-09
3.25967e-09
-7.27108e-09
4.95952e-09
1.05924e-08
7.51864e-09
-7.90614e-09
-8.05283e-09
2.20058e-09
5.0311e-10
-1.24256e-08
-4.4702e-09
-1.11286e-09
-4.20159e-09
-6.1223e-09
-1.15631e-09
1.30622e-08
7.49196e-09
2.4233e-09
-1.96527e-09
5.23664e-09
-7.68043e-09
-6.02502e-10
-6.4567e-09
-6.13732e-09
-5.04671e-11
5.32789e-09
7.84811e-09
1.30764e-10
1.30391e-10
7.71095e-09
4.58295e-10
1.50884e-09
1.43678e-09
5.42666e-10
1.09007e-09
-7.82013e-09
-2.60275e-09
-2.40952e-09
-4.28553e-11
2.86468e-09
4.47726e-09
5.93393e-09
1.05636e-11
1.06469e-11
-5.48175e-09
-4.14459e-44
-2.56081e-09
-2.52251e-09
-1.39114e-10
-2.34785e-09
-2.57133e-11
-2.16618e-09
2.60471e-10
4.01748e-09
-2.14479e-09
-3.71949e-44
0
7.50275e-09
0
5.05364e-09
-4.68524e-09
-2.82334e-09
1.34409e-09
4.34322e-10
2.87028e-09
2.54384e-09
-1.41406e-10
-4.87777e-09
-7.7653e-11
3.56342e-10
4.9014e-09
-4.90891e-09
-2.07644e-09
-6.08877e-09
-2.60668e-10
2.74563e-11
9.2442e-11
-7.51099e-09
7.16508e-09
-7.10512e-09
4.82616e-09
-5.67109e-11
-2.40823e-09
2.01834e-09
1.9239e-09
-9.1195e-12
-4.99825e-09
1.22208e-08
2.48078e-09
1.66234e-10
0
4.40816e-09
-1.23099e-10
-2.69391e-10
2.46564e-11
-4.97243e-09
2.41224e-09
-8.79296e-12
-7.1524e-09
2.38199e-09
2.27947e-09
0
2.12048e-09
-2.02993e-09
1.53898e-11
-2.50858e-09
2.48785e-09
-2.45371e-09
-8.06344e-10
7.78857e-10
7.65134e-10
-1.04299e-12
7.07111e-10
-1.03716e-11
1.28352e-09
)
;

boundaryField
{
    left
    {
        type            symmetryPlane;
    }
    right
    {
        type            calculated;
        value           nonuniform List<scalar> 
30
(
2.5295e-09
3.65337e-09
-1.40254e-11
2.89609e-09
9.47842e-10
-2.68947e-09
-1.42296e-09
-4.39446e-09
1.75915e-09
2.9179e-09
1.34723e-10
-6.44345e-24
1.76109e-09
1.76113e-09
-3.52233e-09
-1.21187e-23
1.21316e-23
-1.76123e-09
1.76124e-09
-3.86745e-25
1.21235e-23
1.21236e-23
0
4.69215e-27
-2.44348e-23
-1.19247e-23
-1.21259e-23
3.91192e-25
-1.7619e-09
0
)
;
    }
    down
    {
        type            symmetryPlane;
    }
    up
    {
        type            calculated;
        value           nonuniform List<scalar> 
30
(
-1.37468e-13
1.59154e-13
-1.61026e-13
-2.97966e-14
8.31045e-14
4.30789e-15
1.53873e-15
4.66963e-14
1.14833e-13
2.06593e-13
-1.22238e-13
-1.92468e-13
-2.08056e-13
0
2.3542e-13
2.47801e-13
-2.59042e-13
-2.68581e-13
2.75733e-13
-3.84257e-27
1.92894e-27
-4.69337e-29
6.45448e-29
1.84944e-27
1.31157e-28
1.58949e-27
-1.61927e-13
0
0
0
)
;
    }
    hole
    {
        type            calculated;
        value           nonuniform List<scalar> 
20
(
-2.34944e-12
2.64167e-09
0
1.65406e-09
8.93528e-10
2.13469e-09
-5.78049e-10
-1.24805e-09
-5.0153e-10
-1.69712e-10
4.30672e-09
4.24337e-09
2.09564e-09
-4.11138e-09
3.76327e-09
5.82113e-09
-3.4046e-10
-5.32292e-09
-5.03154e-09
-3.25698e-13
)
;
    }
    frontAndBack
    {
        type            empty;
    }
}


// ************************************************************************* //
