/*--------------------------------*- C++ -*----------------------------------*\
  =========                 |
  \\      /  F ield         | OpenFOAM: The Open Source CFD Toolbox
   \\    /   O peration     | Website:  https://openfoam.org
    \\  /    A nd           | Version:  dev
     \\/     M anipulation  |
\*---------------------------------------------------------------------------*/
FoamFile
{
    version     2.0;
    format      ascii;
    class       volScalarField;
    location    "40";
    object      sigmaxx;
}
// * * * * * * * * * * * * * * * * * * * * * * * * * * * * * * * * * * * * * //

dimensions      [1 -1 -2 0 0 0 0];

internalField   nonuniform List<scalar> 
1000
(
-16168
-110418
-156475
-179126
-188365
-190045
-187157
-181622
-175799
-166544
-87490.9
-158786
-191350
-203892
-206862
-204226
-199016
-192045
-184266
-174293
-167869
-207419
-221538
-223108
-218690
-211345
-202698
-193216
-183093
-171400
-251487
-255681
-249528
-238111
-225430
-212474
-199880
-187342
-174540
-160883
-333798
-301819
-274008
-249469
-228114
-209358
-192514
-176751
-161489
-146139
-409132
-343527
-295419
-257872
-228115
-203623
-182741
-164037
-146563
-129774
-472509
-377661
-312132
-263586
-226456
-196965
-172503
-151251
-132004
-114064
-520581
-402786
-323683
-266759
-223991
-190562
-163330
-140125
-119513
-100702
-551307
-417935
-330427
-268037
-221575
-185536
-156413
-131909
-110412
-91081.8
-562970
-425103
-332321
-266637
-217954
-180457
-150240
-125051
-103087
-83575.1
29879.4
98688.6
126948
131306
123828
111245
96918.1
82482.6
68779.4
55985.8
40271.5
95253.3
117849
119087
110958
98645.4
85007.3
71447.5
58607.4
46509.6
58431.6
87464.6
97257.6
94066
84505.1
72604.5
60214.3
48263.5
37060.1
26039.7
78235.1
73745.2
69415.5
60034.4
49044.7
37698.4
26963.6
17074.9
7961.23
-1709.98
97772.3
57198.1
35809.8
20882.5
8331.52
-2270.5
-11164.9
-18764.7
-25503.4
-33671.9
109809
38931.8
2400.56
-19308.3
-33483.8
-43457.6
-50450.5
-55677.2
-59968.1
-66539.9
113700
19834.6
-29402.4
-56943.4
-72902.2
-82272.9
-87482.9
-90381.6
-92157.7
-97066.9
105644
-2063.58
-59847.6
-90974.4
-107974
-116578
-119866
-120302
-119459
-122494
80923.4
-31076.6
-91069.9
-122777
-139019
-145913
-146878
-144597
-140721
-140461
41414.2
-66514.5
-122935
-151988
-165664
-170195
-168768
-164125
-156496
-150497
44756.2
34885.3
26421.1
18976.2
12517.2
6973.27
2322.1
-1485.44
-4500.26
-6734.94
-8242.51
-8972.64
-8961.67
-8055.63
-6234.75
-3383.46
450.506
4784.45
9636.44
13990.9
36209
27708.8
20776.4
14529.5
9005.85
4221.23
161.725
-3168.69
-5819.08
-7766.86
-9066.49
-9639.3
-9512.22
-8554.77
-6711.15
-3864.16
-144.922
4018.37
8723.85
13360.7
17224.3
11320.5
7521.3
3827.11
387.027
-2707.78
-5407.01
-7654.8
-9449.3
-10736
-11524.7
-11727.6
-11323.6
-10153.3
-8163.25
-5246.78
-1419.7
2930.19
7930.87
13080.1
-8777.26
-11355.7
-11070.9
-11333
-11907.1
-12636.5
-13405.7
-14100.5
-14655.3
-14970.4
-15006.6
-14632.4
-13782.9
-12300.6
-10043.9
-6856.3
-2777.2
1904.98
7299.56
12810.3
-39048.8
-38007.9
-33225.2
-29582.3
-26819.8
-24744.2
-23188.1
-21985.2
-21003.3
-20095.2
-19159
-18042.5
-16626.2
-14688.1
-12077
-8608.16
-4157.3
955.497
6745.4
12531.7
-70563.6
-66112.4
-56994.8
-49411.5
-43192.7
-38140.4
-34074.9
-30778.1
-28070.9
-25752.3
-23682.3
-21659.6
-19541.7
-17101
-14113.2
-10299.2
-5601.62
-148.951
6048.38
12183.3
-100323
-93147.2
-80428.7
-69336.1
-59925.6
-52024.3
-45498.3
-40069.2
-35565.1
-31714.9
-28380.3
-25312.3
-22380.7
-19285.8
-15898.1
-11914.2
-7194.28
-1652.41
4570.93
11440.1
-125472
-116674
-101484
-87879.8
-75869.5
-65664.5
-56881.6
-49536.8
-43198
-37854.9
-33096
-28928.6
-24944.5
-21200.7
-17241.1
-13198.4
-8555.44
-3656.86
2448.66
10169.9
-143002
-133335
-117600
-102874
-89612.3
-77841.4
-67498.8
-58471.7
-50618.9
-43738.6
-37697.9
-32238.8
-27289.4
-22546.7
-18087.8
-13607.1
-9342.91
-4804.3
1515.64
9626.4
-153006
-142912
-128428
-114071
-100494
-87805.2
-76300.4
-65886.2
-56681
-48429.9
-41154.9
-34523.7
-28555.3
-22908.2
-17711.5
-12772.6
-8421.42
-3472.68
2518.04
9390.07
-143389
-136311
-127510
-116577
-104741
-92934.2
-81502.5
-70868.4
-60995.1
-52075
-43856.6
-36449.4
-29488.9
-23123.2
-17009.5
-11543.1
-6342.24
-1755.48
4563.88
10233.1
-134146
-125513
-117860
-109124
-99486.5
-89403.7
-79302.9
-69481.4
-60137.2
-51349.9
-43139.1
-35451.9
-28228
-21379.3
-14892
-8902.86
-3586.38
1925.69
7013.74
10574.4
-124814
-116407
-108930
-101080
-92624.8
-83717.8
-74591.2
-65511.4
-56657.4
-48162.9
-40066.4
-32382.9
-25067.2
-18089
-11438.4
-5226.62
441.344
5144.61
9583.4
11530.2
-113777
-106575
-99475.9
-92171.3
-84511.5
-76492.1
-68231.2
-59892
-51638.9
-43588.6
-35818.9
-28356.9
-21208.8
-14355
-7817.31
-1739.53
3605.1
8484.73
11411.4
11445.2
-100954
-94921.5
-88753.2
-82171.6
-75246.5
-68009
-60535.3
-52938.6
-45345.3
-37866.4
-30585.8
-23556.3
-16806.1
-10352.6
-4244.25
1415.91
6434.47
10029
12341.7
11742
-86372.8
-81831.2
-76674.5
-70968
-64853.7
-58413.6
-51728.2
-44892.8
-38015.8
-31202.3
-24544.9
-18115.7
-11972.2
-6160.25
-741.98
4128.98
8181.96
11501.4
12619.7
11127.7
-70621.7
-67229.8
-63261.9
-58591.3
-53404.7
-47835.6
-41984
-35950.8
-29841.6
-23765.2
-17826.7
-12123.4
-6741.77
-1760.78
2729.44
6644.2
9862.46
11682
12464.4
11103.5
-53879.7
-51689.7
-48849.9
-45244.3
-41058.1
-36428
-31467
-26282.3
-20984.6
-15691.7
-10527.9
-5621.01
-1095.58
2933.35
6369.47
9107.23
11023.3
12407.9
12223.1
10400.1
-36630.3
-35362
-33678.6
-31154.6
-28007.3
-24365.8
-20344.7
-16049.8
-11594.8
-7106.36
-2731.49
1367.03
5017.28
8054.8
10350.4
11877.7
12707.2
12470.8
11989.1
10396.2
-18988.9
-18752.8
-18055
-16565
-14457
-11835.1
-8792.1
-5421.7
-1829.89
1852.65
5463.94
8803.82
11643.3
13751.6
14953.5
15170
14478
13558
11933.1
9760.89
-1225.2
-1786.7
-2084.79
-1636.45
-582.721
990.731
3018.24
5429.31
8135.06
11018.6
13913.6
16597.4
18781.5
20142.3
20385.9
19409.3
17419.7
14490
12153.4
9838.79
16774.1
15305.8
14060.7
13481.6
13463.7
13954.9
14922.6
16323.7
18104.5
20174.6
22397
24550.2
26313.1
27255.1
26917.6
24933.9
21331.5
17198.4
12941.7
9353.02
34883.8
32613.4
30343.2
28705.3
27578.4
26941.1
26786
27104.3
27881.9
29077.9
30615.1
32330.1
33922.2
34901.3
34562.5
32218.4
27626.3
20972
14859.1
9769.61
53270.1
49960.2
46712.7
43992.5
41711.2
39889.4
38526.5
37662.4
37301.5
37484
38200
39424.8
40973.7
42435.9
42960.7
41334.1
36424.4
28548.6
18946.1
10172.7
71930.2
67653
63309.6
59406.2
55907.8
52814
50157.6
47967.5
46298.8
45214.4
44823.3
45233.6
46546.4
48622.8
50785.9
51570.7
48758.5
39952.2
26844.8
12438.1
91211.8
85752.9
80249.3
75090.5
70300.8
65850.2
61799.1
58134.4
54945.7
52273.8
50305.9
49256.6
49541.2
51517.5
55293.7
59922.5
62283.2
57563.3
41553.9
17270.4
111175
104544
97726.4
91247.6
85065.6
79208.5
73643.2
68402.9
63469
58912.3
54807.4
51437.5
49293.5
49284
52694.5
60511.6
71383.4
77024.1
63714.8
27416.9
132105
123998
115850
107986
100384
93066.3
85960.2
79068.4
72301.6
65647.7
59037.7
52571.7
46507.5
41707.2
40087.8
45195.2
60325.2
81233.9
86516.7
45181.2
154268
143965
134446
125187
116210
107444
98868.6
90367.5
81862
73162.6
64093.5
54372.6
43731
32030.7
19945.2
10449.6
10479.8
30295.2
60140.6
51712.1
176684
164232
153248
142646
132353
122298
112419
102583
92651.6
82394.9
71518.1
59519.7
45620.6
28471.5
5630.62
-27045.2
-74537.8
-137572
-187928
-56193.9
-65869.4
-72741.4
-81889.7
-94668.9
-109814
-125720
-140478
-151830
-157433
-152905
-49039.5
-55090.1
-63344.8
-75079.8
-89289.9
-104739
-119949
-133215
-143153
-143520
-33558.5
-39059.3
-46828.6
-58032.8
-71843
-87231.2
-102946
-117649
-129993
-133377
-19097.7
-24144
-31387.8
-41951.4
-55138
-70068
-85699.5
-100934
-114784
-120483
-5350.25
-9914.5
-16612.4
-26472.9
-38891.3
-53120.7
-68282.7
-83559
-98050.2
-105786
8060.57
3905.43
-2253.95
-11399.1
-23002.7
-36415.2
-50884.8
-65745.6
-80406.4
-89356.5
21351.9
17617.7
11955.7
3482.32
-7335.24
-19909.2
-33586.7
-47897.5
-62300.2
-72087.5
34781.3
31380.9
26172.4
18313.6
8232.37
-3530.62
-16418.9
-30036.9
-43978.8
-54061.8
48459.2
45403.9
40595.6
33279.7
23859.2
12829.6
685.704
-12241.6
-25542.1
-35796.5
62561.1
59770.2
55322.2
48491.6
39657.5
29281.8
17824.9
5600.14
-7099.56
-17207.5
77140.2
74639.2
70507.9
64101.4
55772
45964.8
35108.7
23455.5
11322.7
1335.32
92337.6
90056.5
86215.3
80187
72301.7
62985.3
52619.7
41458.3
29797
20055.3
108170
106142
102563
96873.3
89375.2
80462.4
70495.7
59739.1
48522.3
38839
124743
122916
119590
114218
107069
98503.4
88892
78504.7
67594.9
58029.9
142024
140446
137378
132319
125503
117272
107988
97892.8
87202.6
77538.3
160135
158769
155967
151250
144788
136911
127936
118081
107500
97705.5
179032
177909
175424
171106
165062
157575
148929
139268
128773
118636
198722
197929
195867
192027
186482
179453
171148
161663
151128
140734
218816
218840
217297
214015
209074
202594
194663
185334
174557
164224
238564
241346
240149
237491
233367
227568
219979
210530
199534
188613
)
;

boundaryField
{
    left
    {
        type            symmetryPlane;
    }
    right
    {
        type            calculated;
        value           nonuniform List<scalar> 
30
(
17006.4
17079.2
16995.2
16826.4
16576.4
16245.7
15838.6
15397.4
14896.2
14223.4
13431.1
12603.8
11830.8
11202.4
10735.6
10406.5
10175.7
10007.7
9874.23
9754.09
9626.42
9462.05
9226.54
8866.69
8327.89
7545.29
6476.68
5231.02
4411.61
7555.5
)
;
    }
    down
    {
        type            symmetryPlane;
    }
    up
    {
        type            calculated;
        value           nonuniform List<scalar> 
30
(
238111
240751
239507
236778
232567
226686
219025
209513
198474
187572
175734
163395
152470
141928
131683
121694
111880
102138
92307.5
82183
71452.3
59641.8
45979.9
29181.3
7008.57
-24152.9
-68274.3
-125555
-173778
-75448.2
)
;
    }
    hole
    {
        type            calculated;
        value           nonuniform List<scalar> 
20
(
24598.6
-47084.9
-129775
-217952
-305230
-386028
-454201
-506458
-540330
-553658
-16315.4
-2034.76
25014.2
58983.1
92790.5
118919
132969
132518
114432
79353.5
)
;
    }
    frontAndBack
    {
        type            empty;
    }
}


// ************************************************************************* //
