/*--------------------------------*- C++ -*----------------------------------*\
  =========                 |
  \\      /  F ield         | OpenFOAM: The Open Source CFD Toolbox
   \\    /   O peration     | Website:  https://openfoam.org
    \\  /    A nd           | Version:  dev
     \\/     M anipulation  |
\*---------------------------------------------------------------------------*/
FoamFile
{
    version     2.0;
    format      ascii;
    class       volSymmTensorField;
    location    "40";
    object      sigma;
}
// * * * * * * * * * * * * * * * * * * * * * * * * * * * * * * * * * * * * * //

dimensions      [1 -1 -2 0 0 0 0];

internalField   nonuniform List<symmTensor> 
1000
(
(-16168 45328.1 6.39663e-10 -79120.5 6.86956e-10 -5.07714e+08)
(-110418 14024.5 4.32872e-09 37503 4.6746e-09 -5.07709e+08)
(-156475 -1882.08 -3.49421e-09 98656.3 -6.41578e-09 -5.07706e+08)
(-179126 -9744.04 -2.58094e-09 130989 -2.78945e-09 -5.07703e+08)
(-188365 -13468.7 5.93117e-09 147839 1.09664e-08 -5.07702e+08)
(-190045 -15157.8 3.00624e-09 155050 3.25029e-09 -5.077e+08)
(-187157 -15897.5 -2.26143e-09 156272 5.56176e-09 -5.07699e+08)
(-181622 -15910.4 -4.91611e-10 153254 -6.19416e-09 -5.07699e+08)
(-175799 -15619.3 -6.83708e-09 147119 -3.82268e-09 -5.07699e+08)
(-166544 -13578.7 0 141859 0 -5.07698e+08)
(-87490.9 91357.5 -3.3148e-09 -102092 2.68967e-09 -5.07736e+08)
(-158786 29961 0 5494.09 0 -5.07728e+08)
(-191350 -3050.65 2.72712e-09 62882.3 -2.33432e-09 -5.07722e+08)
(-203892 -20747.9 -5.051e-09 96262.2 4.32307e-09 -5.07717e+08)
(-206862 -30390.9 -2.50216e-09 115197 1.8217e-09 -5.07713e+08)
(-204226 -35568.4 4.91536e-09 125445 1.55962e-09 -5.0771e+08)
(-199016 -38208.3 2.08515e-09 129335 -1.74557e-09 -5.07708e+08)
(-192045 -38922.4 2.05384e-09 129527 -7.74293e-09 -5.07707e+08)
(-184266 -37636.4 0 127147 0 -5.07705e+08)
(-174293 -33356.8 0 127488 0 -5.07703e+08)
(-167869 126880 0 -110944 0 -5.07757e+08)
(-207419 42475.4 0 -20598.7 0 -5.07745e+08)
(-221538 -3501.27 3.05853e-09 30154.2 -1.87853e-09 -5.07736e+08)
(-223108 -29099.7 2.12962e-09 61185.5 3.18433e-09 -5.0773e+08)
(-218690 -43351.4 3.26762e-11 80769.6 4.88697e-11 -5.07724e+08)
(-211345 -51045.1 -4.80171e-09 92786.5 -1.97648e-09 -5.0772e+08)
(-202698 -54638.2 -3.90904e-10 99461.5 -5.4757e-09 -5.07716e+08)
(-193216 -55187.2 -2.19527e-09 102751 1.32768e-09 -5.07713e+08)
(-183093 -53196.2 2.79529e-09 103803 4.18196e-09 -5.07711e+08)
(-171400 -48902.7 7.0965e-10 107118 2.63722e-09 -5.07707e+08)
(-251487 149960 -1.6552e-09 -106726 1.41147e-09 -5.07775e+08)
(-255681 51522.8 -1.60352e-09 -39359.7 -2.85865e-09 -5.0776e+08)
(-249528 -3098.08 -1.64602e-09 97.2426 7.30926e-10 -5.0775e+08)
(-238111 -33722.3 1.78301e-09 27003.4 3.18099e-09 -5.07741e+08)
(-225430 -51065 4.64555e-09 45613.5 1.96383e-09 -5.07734e+08)
(-212474 -60316.4 -2.55767e-09 58616.2 1.35414e-09 -5.07728e+08)
(-199880 -64511.3 -2.33255e-09 67148.7 1.39755e-09 -5.07723e+08)
(-187342 -65091 -5.60411e-09 72742.9 3.10573e-09 -5.07719e+08)
(-174540 -63066.5 -3.53903e-09 76470.7 -3.83691e-09 -5.07715e+08)
(-160883 -59479.5 2.67223e-09 81649.3 1.61913e-09 -5.07711e+08)
(-333798 158460 -2.14735e-09 -94216.5 4.41049e-10 -5.07791e+08)
(-301819 56022.4 3.85858e-11 -52489.3 8.3567e-11 -5.07774e+08)
(-274008 -1600.19 -4.83333e-09 -25356.1 2.36444e-09 -5.07761e+08)
(-249469 -34550.8 -7.63894e-10 -4539.88 -1.65558e-09 -5.07751e+08)
(-228114 -53276.1 1.7206e-09 11859.3 3.72976e-09 -5.07742e+08)
(-209358 -63347.5 4.43323e-09 24591.7 2.7039e-09 -5.07735e+08)
(-192514 -67889.2 1.0655e-09 34213.9 2.31021e-09 -5.07729e+08)
(-176751 -68682.8 1.33844e-09 41519 -3.2172e-09 -5.07724e+08)
(-161489 -67072.9 -6.46286e-09 47069.6 -1.11192e-08 -5.07719e+08)
(-146139 -64335.2 -1.81438e-09 53460.1 6.82365e-10 -5.07714e+08)
(-409132 153022 -4.05081e-09 -76328.1 1.35057e-09 -5.07804e+08)
(-343527 55421.1 3.1902e-11 -59863.4 8.63412e-11 -5.07785e+08)
(-295419 -168.737 -3.19009e-11 -46340.8 -8.63741e-11 -5.07771e+08)
(-257872 -32060.7 -6.31556e-10 -32128.9 -1.71045e-09 -5.07759e+08)
(-228115 -50423.1 -2.94254e-09 -18843 9.5813e-10 -5.07749e+08)
(-203623 -60376.6 -7.87325e-11 -6994.4 -2.133e-10 -5.07741e+08)
(-182741 -65015.5 2.51237e-09 2935.91 -1.04238e-09 -5.07734e+08)
(-164037 -66115.4 6.84697e-09 11205.3 4.80768e-11 -5.07728e+08)
(-146563 -65012.9 1.12159e-09 18155.3 -4.61951e-10 -5.07722e+08)
(-129774 -63074.3 -3.04494e-09 25370.3 -1.60737e-09 -5.07716e+08)
(-472509 134068 1.66057e-09 -57246 -1.9624e-09 -5.07815e+08)
(-377661 49647.9 -8.15909e-10 -63331 -2.88865e-09 -5.07794e+08)
(-312132 1215.79 1.71948e-09 -62105.4 -5.08399e-10 -5.07779e+08)
(-263586 -26895 5.4535e-10 -54658.9 1.93205e-09 -5.07766e+08)
(-226456 -43170.3 4.14026e-09 -44724.3 3.28581e-09 -5.07755e+08)
(-196965 -52142.4 -3.94374e-09 -34347.8 -3.32344e-09 -5.07746e+08)
(-172503 -56452.7 -2.48139e-09 -24563.4 -8.79428e-09 -5.07738e+08)
(-151251 -57710.9 -2.49813e-09 -15710.4 5.83376e-10 -5.07731e+08)
(-132004 -57133.7 1.34003e-09 -7900.02 4.74949e-09 -5.07725e+08)
(-114064 -55912.2 -7.75051e-10 -183.144 3.00365e-09 -5.07719e+08)
(-520581 104425 6.25884e-09 -39915.6 -1.33598e-09 -5.07822e+08)
(-402786 39503.4 -3.85137e-09 -64191.2 6.11451e-10 -5.078e+08)
(-323683 2121.67 -2.75261e-11 -73140.4 -1.38235e-10 -5.07784e+08)
(-266759 -19660.6 -7.47962e-10 -71502.5 -3.75716e-09 -5.0777e+08)
(-223991 -32385.4 6.85531e-09 -64712.6 2.76218e-09 -5.07759e+08)
(-190562 -39490.9 7.83826e-10 -55814.8 3.93844e-09 -5.07749e+08)
(-163330 -43036.4 3.59743e-11 -46454.1 1.80771e-10 -5.07741e+08)
(-140125 -44244.2 -2.00842e-09 -37419.7 3.03764e-09 -5.07733e+08)
(-119513 -44063.2 -4.72269e-10 -29009.1 -2.37329e-09 -5.07727e+08)
(-100702 -43426.8 -2.29459e-10 -20966.3 -2.66111e-09 -5.0772e+08)
(-551307 66590 4.36842e-09 -26363.6 6.06536e-10 -5.07826e+08)
(-417935 26684.3 -3.68014e-09 -63193 2.05574e-09 -5.07803e+08)
(-330427 3346.21 -3.90788e-10 -79810.6 -3.29822e-09 -5.07787e+08)
(-268037 -10420.6 -6.65122e-10 -82468 -5.61499e-09 -5.07773e+08)
(-221575 -18535.7 5.04771e-10 -78195.7 4.26202e-09 -5.07761e+08)
(-185536 -23138.2 3.35836e-09 -70554.5 3.76011e-09 -5.07751e+08)
(-156413 -25494.1 -5.26419e-10 -61642.6 -4.44562e-09 -5.07743e+08)
(-131909 -26414.5 5.08963e-09 -52489.4 -6.03362e-10 -5.07735e+08)
(-110412 -26465.2 1.1981e-09 -43718.5 -1.89984e-10 -5.07728e+08)
(-91081.8 -26305.3 1.58324e-09 -35492.3 8.10029e-09 -5.07722e+08)
(-562970 23567.1 4.39337e-09 -18727.3 1.88531e-09 -5.07827e+08)
(-425103 13688.9 1.14396e-10 -62301.3 2.90742e-09 -5.07805e+08)
(-332321 6620.51 1.65622e-09 -82578.9 -3.50848e-09 -5.07788e+08)
(-266637 2171.71 -1.50524e-10 -87497.2 -3.82795e-09 -5.07774e+08)
(-217954 -562.135 7.23836e-12 -84373.3 1.84108e-10 -5.07762e+08)
(-180457 -2203.44 3.05114e-09 -77368.2 3.96943e-09 -5.07752e+08)
(-150240 -3134.42 -1.83076e-10 -68575.3 -4.6574e-09 -5.07743e+08)
(-125051 -3625.71 2.56394e-09 -59404.6 -1.71344e-11 -5.07735e+08)
(-103087 -3825.88 1.97565e-10 -50362.9 5.02628e-09 -5.07728e+08)
(-83575.1 -3987.88 4.97118e-11 -41757.4 2.76548e-09 -5.07721e+08)
(29879.4 -29734 1.35679e-09 637523 4.36667e-09 -5.07538e+08)
(98688.6 -14974.1 2.99895e-09 453724 1.17582e-10 -5.07565e+08)
(126948 -4769.57 -1.82456e-09 338462 1.72428e-09 -5.07585e+08)
(131306 1209.05 0 262727 0 -5.07601e+08)
(123828 4418.79 -4.1049e-09 210472 -1.6116e-10 -5.07615e+08)
(111245 6065.15 -4.29054e-11 172629 2.8947e-09 -5.07627e+08)
(96918.1 6776.49 4.47376e-09 143788 1.75695e-10 -5.07637e+08)
(82482.6 6974.34 2.26609e-09 120563 2.65439e-09 -5.07645e+08)
(68779.4 6894.52 2.60851e-09 100976 -1.11091e-09 -5.07653e+08)
(55985.8 6761.68 2.70795e-10 83783.1 -3.44281e-09 -5.0766e+08)
(40271.5 -86117.4 8.12619e-11 614702 4.31248e-09 -5.07541e+08)
(95253.3 -21373.6 1.84068e-09 440392 -1.74683e-09 -5.07569e+08)
(117849 11241.9 -1.90527e-09 336783 1.58177e-09 -5.07587e+08)
(119087 27490.8 -1.81089e-09 267311 -2.14115e-10 -5.07603e+08)
(110958 35541.8 0 218192 0 -5.07616e+08)
(98645.4 39063.9 -2.2653e-10 181789 2.88754e-09 -5.07628e+08)
(85007.3 39972.1 4.62925e-09 153499 5.4766e-10 -5.07637e+08)
(71447.5 39445.7 1.69402e-11 130431 2.00366e-12 -5.07646e+08)
(58607.4 38165.1 -1.02692e-08 110683 -1.21502e-09 -5.07653e+08)
(46509.6 36797.6 1.60715e-10 93109.2 -1.4953e-09 -5.0766e+08)
(58431.6 -132681 -4.45695e-10 557940 2.08999e-09 -5.0755e+08)
(87464.6 -30571 1.9117e-09 416926 -1.6092e-09 -5.07576e+08)
(97257.6 19710.1 3.27971e-10 329315 -1.76433e-09 -5.07594e+08)
(94066 44819.4 -1.78852e-09 268925 -3.554e-10 -5.07609e+08)
(84505.1 57170.8 0 224838 0 -5.07621e+08)
(72604.5 62628.9 -6.74922e-10 191278 2.81659e-09 -5.07631e+08)
(60214.3 64105.2 -9.51143e-10 164522 3.96883e-09 -5.0764e+08)
(48263.5 63309.6 2.82208e-09 142234 -2.05245e-09 -5.07648e+08)
(37060.1 61277.4 3.01847e-12 122805 5.99954e-13 -5.07655e+08)
(26039.7 58992.2 -2.96209e-09 105169 1.75655e-09 -5.07662e+08)
(78235.1 -163300 7.64423e-10 474077 -4.22311e-09 -5.07565e+08)
(73745.2 -39247.5 -1.4888e-09 381814 -4.19002e-10 -5.07587e+08)
(69415.5 23049 4.18018e-10 317352 -1.74644e-09 -5.07603e+08)
(60034.4 54257.8 0 268816 0 -5.07616e+08)
(49044.7 70054 2.99905e-09 231758 4.05937e-09 -5.07628e+08)
(37698.4 77277.4 6.37187e-09 202319 1.79604e-09 -5.07637e+08)
(26963.6 79537.1 -4.2669e-09 178035 -1.20285e-09 -5.07645e+08)
(17074.9 78853.8 -6.86323e-09 157172 -1.93488e-09 -5.07652e+08)
(7961.23 76485.2 2.8269e-10 138520 -1.17998e-09 -5.07659e+08)
(-1709.98 73626.3 7.10424e-10 121091 -2.18989e-09 -5.07665e+08)
(97772.3 -174588 -1.1315e-09 377090 4.13403e-09 -5.07583e+08)
(57198.1 -45687.8 2.1575e-09 336927 2.87266e-09 -5.07601e+08)
(35809.8 20912.2 -6.85731e-10 298298 1.65955e-09 -5.07615e+08)
(20882.5 55885.6 3.59473e-09 264764 1.32485e-09 -5.07626e+08)
(8331.52 74027.8 5.5164e-11 236387 2.03357e-11 -5.07636e+08)
(-2270.5 82758.4 -3.04792e-09 212287 -4.20829e-09 -5.07644e+08)
(-11164.9 85929.1 2.19113e-10 191353 -1.36801e-09 -5.07651e+08)
(-18764.7 85690.4 0 172652 0 -5.07657e+08)
(-25503.4 83386 -5.35641e-09 155377 -6.83176e-10 -5.07662e+08)
(-33671.9 80251.1 2.8068e-10 138542 -1.02271e-09 -5.07668e+08)
(109809 -165877 -3.45507e-09 271491 5.46657e-09 -5.07604e+08)
(38931.8 -48798.5 -2.67097e-09 282468 -1.22886e-09 -5.07618e+08)
(2400.56 15819.7 -2.29983e-09 272088 9.16419e-10 -5.07629e+08)
(-19308.3 50744.1 -1.65621e-09 254630 -7.62771e-10 -5.07638e+08)
(-33483.8 69761.6 1.18233e-09 236268 -2.8613e-09 -5.07646e+08)
(-43457.6 79449.4 2.66952e-09 218488 4.41634e-09 -5.07652e+08)
(-50450.5 83543.9 2.65955e-11 201772 1.22549e-11 -5.07657e+08)
(-55677.2 84010 -3.23791e-09 186006 1.33026e-09 -5.07662e+08)
(-59968.1 82084.7 2.7951e-12 170785 1.28797e-12 -5.07667e+08)
(-66539.9 78883.9 -1.12009e-09 155072 2.57358e-09 -5.07672e+08)
(113700 -140398 -9.59277e-10 174258 -5.34589e-10 -5.07626e+08)
(19834.6 -44762.1 -5.33735e-11 225284 -2.98324e-11 -5.07636e+08)
(-29402.4 9742.88 -8.03613e-11 239139 -4.49437e-11 -5.07644e+08)
(-56943.4 41147.6 -3.32571e-09 237982 1.94643e-09 -5.07651e+08)
(-72902.2 58969.6 3.58465e-09 229935 2.00604e-09 -5.07656e+08)
(-82272.9 68736 -1.47338e-09 218951 2.49166e-09 -5.07661e+08)
(-87482.9 73473.1 2.81355e-09 206952 -4.65602e-09 -5.07665e+08)
(-90381.6 74743.4 1.48846e-11 194689 8.3324e-12 -5.07668e+08)
(-92157.7 73446.5 -1.56424e-09 182229 -2.26515e-09 -5.07672e+08)
(-97066.9 70251.2 -8.71564e-10 168158 1.70157e-09 -5.07676e+08)
(105644 -103153 2.84975e-09 88804.5 -5.79694e-09 -5.07647e+08)
(-2063.58 -35201.1 -2.44608e-09 168309 -1.63133e-09 -5.07654e+08)
(-59847.6 5194.73 1.4782e-09 203811 9.86395e-10 -5.07659e+08)
(-90974.4 29408.2 -1.45264e-09 216425 -9.69686e-10 -5.07663e+08)
(-107974 43832.5 1.53239e-10 217573 1.02317e-10 -5.07667e+08)
(-116578 52359.3 -2.09949e-09 212781 -4.88177e-09 -5.0767e+08)
(-119866 57176.9 -3.74732e-09 205360 -2.50275e-09 -5.07673e+08)
(-120302 59231.8 3.78553e-09 196743 2.52846e-09 -5.07675e+08)
(-119459 58734.1 2.1682e-09 187193 1.44827e-09 -5.07677e+08)
(-122494 55614.7 2.88243e-09 175031 5.42198e-10 -5.0768e+08)
(80923.4 -55925.6 4.63409e-09 16227.9 -4.50736e-09 -5.0767e+08)
(-31076.6 -20235.4 4.86389e-09 118312 1.34641e-09 -5.07672e+08)
(-91069.9 2353.56 -7.23441e-11 168222 -5.69573e-11 -5.07675e+08)
(-122777 16628.6 5.18907e-10 191113 -3.82005e-09 -5.07677e+08)
(-139019 25841.2 2.00792e-09 199388 -2.35585e-09 -5.07678e+08)
(-145913 31780 1.69997e-09 199793 -2.34455e-09 -5.0768e+08)
(-146878 35867 3.82896e-09 196200 3.01714e-09 -5.07681e+08)
(-144597 38275.7 -2.48287e-09 190512 2.9384e-09 -5.07682e+08)
(-140721 38971.5 -2.37662e-09 183277 -4.96004e-09 -5.07682e+08)
(-140461 36942.8 6.75867e-10 173566 -9.31774e-10 -5.07685e+08)
(41414.2 -5619.7 8.70622e-11 -39091.9 7.98786e-11 -5.07692e+08)
(-66514.5 -3358.14 1.20436e-09 74683 1.11131e-09 -5.0769e+08)
(-122935 -297.658 -1.3355e-09 133516 1.20829e-09 -5.0769e+08)
(-151988 3008.53 5.42469e-10 162754 -8.54272e-09 -5.0769e+08)
(-165664 5917.63 -4.31834e-11 176226 -3.98897e-11 -5.0769e+08)
(-170195 8345.92 -2.18098e-09 180403 1.92454e-09 -5.0769e+08)
(-168768 10451.4 3.19195e-09 179623 6.65029e-09 -5.0769e+08)
(-164125 12136.3 -1.1706e-09 175313 6.63206e-10 -5.0769e+08)
(-156496 14137.1 -5.54621e-09 170706 -5.12519e-09 -5.07689e+08)
(-150497 15524.4 6.47487e-09 162405 4.47781e-09 -5.0769e+08)
(44756.2 6197.28 5.58744e-09 68362.3 -1.14916e-09 -5.07666e+08)
(34885.3 5372.68 1.84764e-10 53696.7 -2.26739e-09 -5.07672e+08)
(26421.1 4788.12 -8.10721e-09 40313.9 -1.10778e-09 -5.07677e+08)
(18976.2 4245.67 -2.71814e-09 27762.8 1.05468e-11 -5.07682e+08)
(12517.2 3713.97 -2.15285e-10 15665.2 3.45427e-09 -5.07686e+08)
(6973.27 3188.69 0 3627.16 0 -5.0769e+08)
(2322.1 2679.5 0 -8572.3 0 -5.07694e+08)
(-1485.44 2183.6 2.65376e-09 -21182 -1.03008e-11 -5.07698e+08)
(-4500.26 1702.84 6.46554e-11 -34314.6 -1.17557e-09 -5.07701e+08)
(-6734.94 1229.95 5.24334e-09 -48152.6 -2.03619e-11 -5.07705e+08)
(-8242.51 758.148 1.678e-10 -62760.6 -3.56335e-09 -5.07709e+08)
(-8972.64 287.083 -6.97996e-11 -78300.8 1.194e-09 -5.07712e+08)
(-8961.67 -201.615 1.40492e-10 -94807.4 -3.60029e-09 -5.07716e+08)
(-8055.63 -719.936 -7.74194e-09 -112473 3.01019e-11 -5.0772e+08)
(-6234.75 -1280.27 2.52964e-09 -131358 1.20252e-09 -5.07724e+08)
(-3383.46 -1862.83 9.14303e-12 -151696 -3.55786e-14 -5.07728e+08)
(450.506 -2491.57 -2.53968e-09 -173540 9.88719e-12 -5.07732e+08)
(4784.45 -2998.81 2.51694e-09 -197195 -9.80172e-12 -5.07737e+08)
(9636.44 -2991.98 -4.97363e-09 -221934 -3.69307e-09 -5.07741e+08)
(13990.9 -1689.85 -2.50799e-09 -246552 2.5295e-09 -5.07746e+08)
(36209 33902.6 8.38324e-09 76547.4 -8.53848e-10 -5.07666e+08)
(27708.8 30156.3 1.75368e-10 60641.5 -2.25735e-09 -5.07672e+08)
(20776.4 27353.5 -2.63474e-09 46467.2 -1.10409e-09 -5.07677e+08)
(14529.5 24803.7 8.37356e-09 33281.1 -2.39586e-09 -5.07681e+08)
(9005.85 22418.8 1.05704e-10 20597.8 1.12359e-09 -5.07685e+08)
(4221.23 20182.7 -8.15005e-09 8096.71 1.25685e-09 -5.07689e+08)
(161.725 18104.6 2.57911e-10 -4530.76 -2.34581e-09 -5.07693e+08)
(-3168.69 16161.3 0 -17442.9 0 -5.07697e+08)
(-5819.08 14337.6 5.523e-11 -30859.1 -1.17302e-09 -5.07701e+08)
(-7766.86 12596.7 2.06813e-10 -44859.1 -2.38616e-09 -5.07704e+08)
(-9066.49 10912.2 2.92087e-09 -59634.1 -5.98682e-09 -5.07708e+08)
(-9639.3 9243.81 5.26306e-11 -75225.7 -1.36977e-11 -5.07712e+08)
(-9512.22 7545.87 -2.53789e-09 -91833.7 -2.3557e-09 -5.07716e+08)
(-8554.77 5812.06 2.55186e-09 -109496 -2.89722e-11 -5.0772e+08)
(-6711.15 3960.47 2.57648e-09 -128440 -4.16451e-11 -5.07723e+08)
(-3864.16 2017.82 -2.52551e-09 -148735 2.86972e-11 -5.07728e+08)
(-144.922 2.72132 -2.52138e-09 -170641 2.86631e-11 -5.07732e+08)
(4018.37 -1891.36 -4.99916e-09 -194384 5.68538e-11 -5.07736e+08)
(8723.85 -3583.79 -4.1646e-11 -220107 2.90075e-11 -5.07741e+08)
(13360.7 -5225.64 1.65585e-09 -248980 3.65337e-09 -5.07747e+08)
(17224.3 54471.9 2.69705e-09 87500.2 -4.82457e-11 -5.07668e+08)
(11320.5 48963.3 2.67093e-10 70225.3 -1.14398e-09 -5.07673e+08)
(7521.3 44868.9 -8.01049e-09 55235.5 1.43197e-10 -5.07678e+08)
(3827.11 41051.7 2.23255e-09 41247.4 1.15125e-09 -5.07682e+08)
(387.027 37400.2 8.23077e-09 27805 -2.4441e-09 -5.07686e+08)
(-2707.78 33930.4 -8.00124e-09 14617.1 1.29925e-09 -5.0769e+08)
(-5407.01 30663.8 -2.7775e-09 1401.62 8.94378e-11 -5.07693e+08)
(-7654.8 27589.8 5.20764e-09 -11999.3 -9.30901e-11 -5.07697e+08)
(-9449.3 24680.3 -4.81595e-09 -25799.5 -2.31497e-09 -5.077e+08)
(-10736 21892.4 -5.26165e-09 -40090.9 1.37295e-10 -5.07704e+08)
(-11524.7 19174.2 5.00396e-09 -55067.1 -4.58843e-11 -5.07708e+08)
(-11727.6 16477.6 7.59121e-09 -70793.8 -1.13999e-10 -5.07711e+08)
(-11323.6 13735.2 4.96901e-11 -87476.1 -2.25442e-11 -5.07715e+08)
(-10153.3 10882 -2.52269e-09 -105179 4.51722e-11 -5.07719e+08)
(-8163.25 7870.95 2.47125e-09 -124146 -2.36215e-11 -5.07723e+08)
(-5246.78 4709.77 8.65165e-12 -144485 -1.55067e-13 -5.07727e+08)
(-1419.7 1384.84 -2.48562e-09 -166494 4.457e-11 -5.07731e+08)
(2930.19 -1900.98 2.4254e-09 -190486 1.21924e-09 -5.07736e+08)
(7930.87 -5171.68 2.36576e-09 -216691 6.25044e-09 -5.0774e+08)
(13080.1 -9063.5 9.18526e-13 -246025 -1.40254e-11 -5.07746e+08)
(-8777.26 68164.5 0 102163 0 -5.07671e+08)
(-11355.7 62053.2 2.51567e-10 83395.1 -1.12837e-09 -5.07676e+08)
(-11070.9 57670.1 2.61237e-09 67522.2 -6.00119e-11 -5.07679e+08)
(-11333 53414.1 2.87096e-09 52575.3 -1.35069e-10 -5.07683e+08)
(-11907.1 49184.8 0 38160.5 0 -5.07686e+08)
(-12636.5 45046.7 -2.27929e-09 24051.7 -1.13697e-09 -5.0769e+08)
(-13405.7 41057.8 -2.95257e-09 10025.2 2.41343e-09 -5.07693e+08)
(-14100.5 37234.8 -5.07061e-09 -4066.11 1.16448e-10 -5.07696e+08)
(-14655.3 33559.9 -3.85358e-10 -18414.3 1.28943e-09 -5.077e+08)
(-14970.4 29992.7 4.72339e-09 -33130.5 2.29381e-09 -5.07703e+08)
(-15006.6 26476.7 2.20724e-09 -48402.8 2.36973e-09 -5.07707e+08)
(-14632.4 22941.2 4.14946e-10 -64329 -2.53944e-09 -5.07711e+08)
(-13782.9 19305.8 -2.04632e-09 -81122.5 -3.69666e-09 -5.07714e+08)
(-12300.6 15504.6 2.31952e-09 -98900.2 1.21247e-09 -5.07718e+08)
(-10043.9 11442.4 2.36909e-09 -117913 1.18956e-09 -5.07722e+08)
(-6856.3 7097.4 -2.43644e-09 -138329 5.61064e-11 -5.07726e+08)
(-2777.2 2495.17 -7.6345e-12 -160480 1.75912e-13 -5.0773e+08)
(1904.98 -2174.24 7.21723e-09 -184685 1.10013e-09 -5.07734e+08)
(7299.56 -7042.39 -2.34466e-09 -211117 -1.28528e-09 -5.07739e+08)
(12810.3 -12996.9 -2.41637e-09 -240569 2.89609e-09 -5.07745e+08)
(-39048.8 74491.7 4.95021e-09 118481 2.01199e-09 -5.07674e+08)
(-38007.9 68972.6 -4.42872e-10 98603.9 1.15515e-09 -5.07678e+08)
(-33225.2 65349.8 -5.51366e-09 82103.7 1.3042e-09 -5.07681e+08)
(-29582.3 61554.6 2.61601e-09 66293.8 -1.15779e-09 -5.07684e+08)
(-26819.8 57520.9 6.22831e-09 50889.7 -3.73708e-09 -5.07687e+08)
(-24744.2 53367.4 -2.59341e-09 35772.6 1.01052e-10 -5.0769e+08)
(-23188.1 49203.1 0 20820.3 0 -5.07693e+08)
(-21985.2 45085.1 2.46201e-09 5912.36 -6.43864e-11 -5.07696e+08)
(-21003.3 41026 -6.83093e-10 -9100.26 3.64816e-09 -5.07699e+08)
(-20095.2 37001.3 -2.72503e-09 -24348.1 1.33166e-09 -5.07703e+08)
(-19159 32959.8 -4.33402e-09 -39998.3 -2.43063e-09 -5.07706e+08)
(-18042.5 28832.1 -4.76799e-09 -56190.5 -1.03983e-09 -5.07709e+08)
(-16626.2 24519.2 6.48941e-09 -73128.7 3.78652e-09 -5.07713e+08)
(-14688.1 19910 7.0532e-09 -90987.3 1.07844e-09 -5.07717e+08)
(-12077 14909.4 1.51957e-10 -110042 -1.31361e-09 -5.0772e+08)
(-8608.16 9478.74 -2.24486e-09 -130532 -1.25764e-09 -5.07724e+08)
(-4157.3 3592.32 1.88602e-10 -152775 -2.6496e-09 -5.07729e+08)
(955.497 -2498.61 7.56958e-11 -177116 -1.32899e-09 -5.07733e+08)
(6745.4 -8937.47 4.74985e-09 -203619 -2.70148e-09 -5.07738e+08)
(12531.7 -16918.9 2.34641e-09 -232969 9.47842e-10 -5.07743e+08)
(-70563.6 73355.4 2.77853e-09 134347 4.97896e-10 -5.07678e+08)
(-66112.4 69511.8 1.1257e-10 114266 -3.05215e-11 -5.07681e+08)
(-56994.8 67608.7 -2.88043e-09 97692.4 1.21296e-09 -5.07683e+08)
(-49411.5 65147.6 -8.15122e-09 81360.4 2.52592e-09 -5.07685e+08)
(-43192.7 62084.7 2.56949e-09 65127.3 -1.16513e-09 -5.07687e+08)
(-38140.4 58593 4.96461e-09 49077.9 -1.74374e-10 -5.0769e+08)
(-34074.9 54823.8 -2.40845e-09 33188.8 6.52516e-11 -5.07693e+08)
(-30778.1 50892.7 1.97251e-09 17432.9 1.20966e-09 -5.07695e+08)
(-28070.9 46851.9 3.50319e-09 1680.7 -3.93486e-09 -5.07698e+08)
(-25752.3 42715.9 -6.97337e-09 -14159.9 1.41718e-10 -5.07702e+08)
(-23682.3 38452 -2.50182e-09 -30270.2 1.63937e-10 -5.07705e+08)
(-21659.6 33991.6 1.11892e-08 -46770.8 2.24701e-09 -5.07708e+08)
(-19541.7 29227.3 1.32764e-09 -63902.9 6.40082e-09 -5.07712e+08)
(-17101 24035.4 -6.93554e-09 -81834.9 1.88272e-10 -5.07715e+08)
(-14113.2 18255.4 -2.15422e-09 -100896 -1.25034e-09 -5.07719e+08)
(-10299.2 11801.3 -4.92273e-09 -121328 2.90142e-09 -5.07723e+08)
(-5601.62 4657.35 -5.62431e-11 -143580 8.39159e-11 -5.07727e+08)
(-148.951 -2889.81 6.92639e-09 -167908 -1.52196e-09 -5.07731e+08)
(6048.38 -10911.3 2.24071e-09 -194470 1.27826e-09 -5.07736e+08)
(12183.3 -20744.3 9.32236e-12 -223367 -2.68947e-09 -5.07741e+08)
(-100323 65238.7 -2.73956e-09 147546 -5.78747e-10 -5.07681e+08)
(-93147.2 63873.6 2.27413e-09 128644 -2.76966e-11 -5.07684e+08)
(-80428.7 64420.9 6.56324e-10 112779 -1.18785e-09 -5.07685e+08)
(-69336.1 64026.8 -2.37731e-09 96478 6.08418e-11 -5.07686e+08)
(-59925.6 62625.8 -9.38775e-10 79753.8 2.38669e-09 -5.07688e+08)
(-52024.3 60414.1 4.46614e-10 63027.8 -1.21446e-09 -5.0769e+08)
(-45498.3 57569.3 3.34013e-09 46317.2 -2.632e-09 -5.07692e+08)
(-40069.2 54277.9 -5.91954e-09 29802.9 3.98794e-09 -5.07695e+08)
(-35565.1 50636.7 -3.48697e-09 13307.5 2.88723e-09 -5.07697e+08)
(-31714.9 46720.6 5.72042e-09 -3119.71 -4.10321e-09 -5.077e+08)
(-28380.3 42521.6 -6.27687e-10 -19741 2.61364e-09 -5.07703e+08)
(-25312.3 38001.8 6.68984e-09 -36567.3 -1.71187e-10 -5.07707e+08)
(-22380.7 33044.5 2.87005e-09 -53930.2 -2.84628e-09 -5.0771e+08)
(-19285.8 27492.1 -6.39126e-09 -71894.7 -1.23481e-09 -5.07713e+08)
(-15898.1 21149.3 3.72547e-09 -90909.2 4.12979e-09 -5.07717e+08)
(-11914.2 13858 1.13038e-10 -111108 -1.59e-10 -5.07721e+08)
(-7194.28 5505.32 -6.86155e-09 -133071 2.92098e-09 -5.07725e+08)
(-1652.41 -3553.35 2.20205e-09 -157033 -5.66277e-11 -5.07729e+08)
(4570.93 -13199.9 2.26535e-09 -183572 -1.48252e-09 -5.07734e+08)
(11440.1 -24426 6.74765e-12 -212008 -1.42296e-09 -5.07739e+08)
(-125472 51286 1.4164e-10 156059 -3.09924e-11 -5.07685e+08)
(-116674 52846.5 -2.16746e-09 139858 1.36571e-11 -5.07687e+08)
(-101484 56386.2 -1.69774e-09 126039 -1.1009e-09 -5.07687e+08)
(-87879.8 58555 0 110257 0 -5.07687e+08)
(-75869.5 59427.9 0 93919.1 0 -5.07688e+08)
(-65664.5 58960.5 -5.0829e-09 76685.5 1.38343e-09 -5.0769e+08)
(-56881.6 57546.9 6.31366e-09 59703.5 -2.33249e-11 -5.07692e+08)
(-49536.8 55260.1 1.17822e-08 42356.7 -1.70584e-09 -5.07694e+08)
(-43198 52404.3 -1.03248e-08 25460.3 -9.09754e-11 -5.07696e+08)
(-37854.9 48990 -7.21124e-09 8229.06 1.6704e-09 -5.07699e+08)
(-33096 45157.6 4.30403e-09 -8653.25 -9.23539e-11 -5.07702e+08)
(-28928.6 40815.3 1.7122e-09 -26100.6 1.39215e-09 -5.07705e+08)
(-24944.5 35925.2 9.93383e-10 -43457.6 -4.22619e-09 -5.07708e+08)
(-21200.7 30277.5 5.13272e-09 -61792.6 -4.42557e-09 -5.07711e+08)
(-17241.1 23652 1.5098e-10 -80388.5 -1.93807e-10 -5.07715e+08)
(-13198.4 15805.2 -5.34182e-09 -100528 -7.09878e-09 -5.07719e+08)
(-8555.44 6539.21 0 -121387 0 -5.07722e+08)
(-3656.86 -3946.52 -2.44095e-10 -144880 2.97464e-09 -5.07727e+08)
(2448.66 -15275.7 6.20459e-11 -169880 -1.43781e-09 -5.07731e+08)
(10169.9 -28047.4 2.25785e-11 -200341 -4.39446e-09 -5.07736e+08)
(-143002 33510.6 -1.57508e-10 158308 3.11801e-11 -5.07689e+08)
(-133335 38605.4 7.40219e-10 147832 -1.11235e-09 -5.07689e+08)
(-117600 45144.3 -8.69108e-10 136531 1.19141e-09 -5.07688e+08)
(-102874 50240.8 -8.40432e-10 122850 1.23298e-09 -5.07688e+08)
(-89612.3 53577.8 3.74592e-09 107051 -2.57881e-09 -5.07688e+08)
(-77841.4 55319.7 1.70664e-09 90406.3 -2.6864e-09 -5.07689e+08)
(-67498.8 55635.6 -3.32749e-09 72944.6 2.60417e-09 -5.07691e+08)
(-58471.7 54812.8 -3.10999e-09 55486.9 -2.50626e-09 -5.07693e+08)
(-50618.9 53040.2 1.46488e-09 37722.5 3.32866e-10 -5.07695e+08)
(-43738.6 50514.3 3.242e-09 20229.6 2.61466e-09 -5.07698e+08)
(-37697.9 47303.8 -1.65245e-09 2443.95 4.43424e-09 -5.077e+08)
(-32238.8 43456.5 9.31741e-11 -15129 -7.82216e-11 -5.07703e+08)
(-27289.4 38868.6 -5.69191e-09 -33262.1 -1.35436e-09 -5.07706e+08)
(-22546.7 33421.8 -1.33868e-10 -51374 1.52841e-10 -5.07709e+08)
(-18087.8 26836.6 5.05294e-10 -70459.5 -2.87607e-09 -5.07713e+08)
(-13607.1 18907.1 -8.21385e-11 -89672 1.39842e-10 -5.07716e+08)
(-9342.91 9177.55 7.87348e-09 -110246 1.43791e-09 -5.0772e+08)
(-4804.3 -2126.96 -1.07916e-10 -131116 1.43798e-09 -5.07724e+08)
(1515.64 -15457.5 -8.21406e-09 -155650 1.67118e-09 -5.07728e+08)
(9626.4 -32171.3 -1.36607e-09 -187807 1.75915e-09 -5.07733e+08)
(-153006 13874.1 2.64052e-11 149575 3.94923e-10 -5.07693e+08)
(-142912 22976 -6.45678e-10 145194 1.51604e-09 -5.07692e+08)
(-128428 32068.9 1.86241e-09 138021 -4.10703e-10 -5.0769e+08)
(-114071 39764 -6.40584e-09 127684 -3.44864e-10 -5.07689e+08)
(-100494 45700.6 -5.65348e-09 114388 7.49366e-10 -5.07689e+08)
(-87805.2 49895.3 4.76636e-09 99295.5 9.88109e-10 -5.0769e+08)
(-76300.4 52397.7 5.52718e-09 82701.7 1.59661e-09 -5.07691e+08)
(-65886.2 53447 5.65728e-09 65511.1 -3.2714e-10 -5.07692e+08)
(-56681 53232.8 -3.86223e-09 47711.8 1.96519e-09 -5.07694e+08)
(-48429.9 51952.8 1.61385e-10 29887.9 2.57081e-10 -5.07697e+08)
(-41154.9 49754 -5.6685e-10 11754.1 -7.19696e-10 -5.07699e+08)
(-34523.7 46656.9 -5.59007e-09 -6291.95 2.56303e-10 -5.07702e+08)
(-28555.3 42691.3 0 -24716.2 0 -5.07705e+08)
(-22908.2 37646.5 9.26236e-10 -43147.4 4.77867e-09 -5.07708e+08)
(-17711.5 31433.8 -1.21231e-10 -62147.5 -1.94158e-10 -5.07711e+08)
(-12772.6 23711 -6.80623e-10 -81119.7 4.85947e-09 -5.07714e+08)
(-8421.42 14330.9 1.84166e-09 -100564 -1.98345e-10 -5.07717e+08)
(-3472.68 2410.47 2.3053e-10 -119687 -3.32148e-09 -5.07721e+08)
(2518.04 -13658.4 -3.19257e-11 -142229 -1.92844e-10 -5.07725e+08)
(9390.07 -35768 -2.1431e-11 -172184 2.9179e-09 -5.0773e+08)
(-143389 4467.12 2.4688e-09 142125 8.5866e-11 -5.07693e+08)
(-136311 13804.3 -6.71382e-10 136122 1.68537e-09 -5.07692e+08)
(-127510 22323.4 -1.12502e-09 130185 6.84072e-11 -5.07692e+08)
(-116577 30208.9 5.98359e-10 121396 -1.70155e-09 -5.07691e+08)
(-104741 37100.7 6.39485e-10 110329 5.17627e-09 -5.07691e+08)
(-92934.2 42543.7 1.88864e-10 96701.2 3.37404e-09 -5.07691e+08)
(-81502.5 46533.7 -2.24724e-09 81796.5 1.71583e-09 -5.07692e+08)
(-70868.4 49034.4 -1.31286e-09 65463.6 -1.71634e-09 -5.07694e+08)
(-60995.1 50228.6 2.99259e-09 48771.4 -5.15181e-09 -5.07695e+08)
(-52075 50203.4 -3.73564e-10 31309.6 -4.57527e-11 -5.07697e+08)
(-43856.6 49095.1 1.0059e-09 13941.9 -3.37755e-09 -5.07699e+08)
(-36449.4 46935.8 -2.98472e-10 -4006.74 -5.26501e-11 -5.07702e+08)
(-29488.9 43702.6 0 -21705.2 0 -5.07704e+08)
(-23123.2 39301.3 -2.23737e-10 -40039.7 1.69603e-09 -5.07707e+08)
(-17009.5 33571 1.87514e-10 -58017.2 -1.68757e-09 -5.0771e+08)
(-11543.1 26430.6 -1.52777e-10 -76624.3 -8.34483e-11 -5.07713e+08)
(-6342.24 17472.1 -1.64462e-09 -94203.4 -1.66588e-09 -5.07716e+08)
(-1755.48 5639.57 8.34726e-11 -112181 1.06755e-10 -5.07719e+08)
(4563.88 -11786.9 4.99561e-11 -130487 1.20208e-10 -5.07721e+08)
(10233.1 -38343.9 5.74269e-12 -153954 1.34723e-10 -5.07725e+08)
(-134146 -1552.05 1.68391e-09 134025 -6.73257e-10 -5.07692e+08)
(-125513 7347.43 0 127123 0 -5.07692e+08)
(-117860 15476.4 -1.761e-09 121420 7.12321e-13 -5.07691e+08)
(-109124 23038.2 2.97151e-23 113955 -6.06314e-24 -5.07691e+08)
(-99486.5 29891.5 -3.12222e-24 104122 -1.21258e-23 -5.07691e+08)
(-89403.7 35712.6 1.25136e-23 92105.4 -2.34755e-23 -5.07692e+08)
(-79302.9 40296.3 2.44345e-23 78341.4 -1.21109e-23 -5.07693e+08)
(-69481.4 43579.1 -1.76118e-09 63320.6 6.13265e-13 -5.07694e+08)
(-60137.2 45585.6 0 47421.6 0 -5.07695e+08)
(-51349.9 46377.9 1.76125e-09 30966.1 -6.09812e-13 -5.07697e+08)
(-43139.1 46009.2 -1.8189e-23 14133 -6.83835e-24 -5.07699e+08)
(-35451.9 44497.1 -1.76132e-09 -2924.79 6.34818e-13 -5.07701e+08)
(-28228 41806.9 1.76135e-09 -20155.5 -6.58999e-13 -5.07703e+08)
(-21379.3 37834.2 1.21177e-23 -37461.6 -1.21046e-23 -5.07706e+08)
(-14892 32477.2 -1.76142e-09 -54820.3 7.34566e-13 -5.07708e+08)
(-8902.86 25741.1 -1.21005e-23 -72067.1 2.00939e-25 -5.07711e+08)
(-3586.38 17366.8 1.76147e-09 -88801.4 -8.4976e-13 -5.07714e+08)
(1925.69 5719.03 1.7615e-09 -104261 -9.35008e-13 -5.07716e+08)
(7013.74 -12168.1 -1.21047e-23 -119612 -6.44487e-24 -5.07718e+08)
(10574.4 -39401.4 -4.03406e-24 -134967 -6.44345e-24 -5.07721e+08)
(-124814 -7449.36 1.76172e-09 124458 1.76106e-09 -5.07692e+08)
(-116407 1180.81 7.66136e-13 118766 1.76182e-09 -5.07692e+08)
(-108930 8958.03 -1.76023e-09 113101 1.76254e-09 -5.07691e+08)
(-101080 16094 0 106017 0 -5.07691e+08)
(-92624.8 22684 1.76194e-09 97090.5 1.76105e-09 -5.07691e+08)
(-83717.8 28517 1.76288e-09 86239.2 3.52273e-09 -5.07692e+08)
(-74591.2 33377 -1.76025e-09 73761 1.76234e-09 -5.07692e+08)
(-65511.4 37121.3 -1.75935e-09 59971.7 3.52391e-09 -5.07694e+08)
(-56657.4 39696.2 1.76122e-09 45251.5 -6.56963e-13 -5.07695e+08)
(-48162.9 41089 1.88959e-12 29852.8 3.52306e-09 -5.07697e+08)
(-40066.4 41298.9 9.5557e-13 14032.5 1.76148e-09 -5.07698e+08)
(-32382.9 40305.2 1.93021e-12 -2084.2 3.52286e-09 -5.077e+08)
(-25067.2 38051.2 1.94731e-12 -18335.8 3.52277e-09 -5.07702e+08)
(-18089 34432.7 9.81337e-13 -34652.1 1.76133e-09 -5.07704e+08)
(-11438.4 29370 1.97634e-12 -50880.6 3.52257e-09 -5.07707e+08)
(-5226.62 22939.7 1.98817e-12 -66876.3 3.52247e-09 -5.07709e+08)
(441.344 14938.1 -1.76148e-09 -82146.4 8.95381e-13 -5.07711e+08)
(5144.61 3751.71 1.00267e-12 -96178.9 1.76115e-09 -5.07713e+08)
(9583.4 -13541.9 1.00313e-12 -107960 1.76112e-09 -5.07715e+08)
(11530.2 -39122.7 1.18384e-13 -116492 1.76109e-09 -5.07717e+08)
(-113777 -13593.6 6.80121e-09 113183 -2.40097e-09 -5.07692e+08)
(-106575 -5141.08 -7.40718e-13 109385 -1.76179e-09 -5.07692e+08)
(-99475.9 2461.91 -3.52135e-09 104398 1.76329e-09 -5.07691e+08)
(-92171.3 9325.88 5.94297e-23 97845.6 -1.81791e-23 -5.07691e+08)
(-84511.5 15641.1 3.52307e-09 89630.9 1.76026e-09 -5.07691e+08)
(-76492.1 21345.4 0 79761.2 0 -5.07692e+08)