/*--------------------------------*- C++ -*----------------------------------*\
  =========                 |
  \\      /  F ield         | OpenFOAM: The Open Source CFD Toolbox
   \\    /   O peration     | Website:  https://openfoam.org
    \\  /    A nd           | Version:  dev
     \\/     M anipulation  |
\*---------------------------------------------------------------------------*/
FoamFile
{
    version     2.0;
    format      ascii;
    class       volScalarField;
    location    "100";
    object      sigmaxy;
}
// * * * * * * * * * * * * * * * * * * * * * * * * * * * * * * * * * * * * * //

dimensions      [1 -1 -2 0 0 0 0];

internalField   nonuniform List<scalar> 
1000
(
-923.957
-2205.88
-3142.93
-3779.11
-4182.19
-4439.68
-4614.89
-4673.25
-4674.96
-4155.81
7002.15
773.788
-3568.15
-6195.31
-7779.66
-8697.63
-9211.54
-9366.65
-9110.23
-8105.94
13865
3096.16
-4076.48
-8393.55
-10871.3
-12214
-12818.3
-12843.6
-12363.6
-11323.7
19145.8
4889.54
-4491.23
-9939.1
-13005.3
-14562.9
-15178.5
-15107.6
-14534.2
-13595.6
22157
6012.51
-4493.1
-10575.5
-13906.4
-15559.1
-16156.5
-16046.3
-15489.7
-14693
22712.1
6410.63
-4158.54
-10187.5
-13476.8
-15085.8
-15666.6
-15581.3
-15093.9
-14452.9
20637.9
6121.85
-3356.83
-8796.8
-11748.4
-13204.9
-13741.9
-13702.8
-13333.3
-12862.3
16416.2
5204.32
-2249.21
-6557.17
-8918.29
-10088.8
-10548.1
-10557.4
-10319.3
-10017.6
10586.1
3880.29
-832.042
-3633.59
-5180.77
-5969.95
-6289.65
-6334.64
-6219.24
-6082.83
3860.24
2424.06
1012.68
75.5125
-468.733
-776.227
-924.461
-988.445
-993.584
-997.468
-4557.77
-2927.34
-1400.81
-368.558
241.777
592.507
776.034
860.706
887.124
895.082
-12645.5
-5381.04
-380.528
2595.19
4301.28
5216.25
5634.99
5752.97
5693.4
5574.89
-19651.9
-8113.56
-275.425
4426.55
7090.06
8519.98
9176.8
9352.23
9236.86
9007
-24921.3
-10496
-534.433
5402.97
8819.75
10666.6
11533
11772.2
11619.3
11290.6
-27923.4
-12238.4
-1217.14
5559.83
9473.47
11619.7
12651.3
12953.9
12782.9
12360.3
-28241.8
-13173.2
-1946.41
4982.18
9076.66
11363.5
12509.6
12878.1
12706.4
12190.1
-26141
-12630.3
-2553.31
3904.39
7763.84
9992.93
11170.3
11601.1
11459.3
10842.2
-22086.6
-11061.2
-2786.69
2514.71
5711.08
7619.02
8717.1
9214.88
9149.39
8449.39
-15934.4
-8457.74
-2800.95
779.662
2962.8
4295.52
5173.81
5681.16
5815.43
5287.35
-8832.53
-5442.63
-2986.52
-1421.89
-483.472
108.153
536.256
853.111
1261.38
1488.1
824.105
708.929
633.629
561.284
485.796
408.213
330.657
254.671
180.535
108.68
37.3506
-32.0715
-103.87
-179.889
-263.471
-351.516
-450.635
-525.578
-487.813
-145.445
5169.68
4613.57
4210.48
3834.86
3470.36
3120.37
2789
2478.44
2186.87
1912.84
1651.17
1398.15
1143.84
888.389
612.987
318.927
6.13563
-277.133
-435.233
-167.399
8352.59
7524.99
6935.91
6371.4
5810.94
5264.41
4741.37
4246.84
3780.02
3338.22
2914.66
2503.7
2093.61
1671.36
1225.22
748.654
233.707
-257.78
-579.735
-246.054
10459.2
9521.41
8894.47
8266.01
7615.17
6960.51
6318.8
5700.5
5107.76
4539.16
3988.6
3446.98
2901.68
2339.92
1740.26
1087.67
381.857
-306.332
-781.181
-338.243
11417.7
10538.3
10030.6
9475.01
8853.57
8193.23
7518.91
6847.8
6187.43
5539.81
4900.65
4262.68
3611.68
2927.78
2191.25
1383.58
493.314
-385.828
-994.271
-429.389
11193.3
10533.2
10294.3
9948.8
9479.94
8922.42
8306.15
7658
6991.28
6315.51
5629.93
4929.31
4199.79
3423.06
2570.2
1616.5
555.725
-503.207
-1233.9
-529.285
9822.96
9515.3
9668.66
9655.79
9454.44
9101.9
8629.55
8076.53
7461.92
6807.11
6114.55
5387.26
4610.33
3764.22
2818.76
1744.32
523.583
-710.04
-1548.12
-646.48
7448.26
7589.89
8247.13
8657.96
8835.83
8765.36
8524.06
8122.28
7622.86
7028.55
6374.47
5648.95
4857.23
3970.42
2961.23
1793.78
448.444
-941.619
-1862.73
-729.601
4388.71
5148
6326.31
7239.81
7828.04
8123.93
8157.52
7985.26
7642.97
7171.64
6589.53
5912.21
5133.03
4238.76
3200.64
1988.31
565.954
-898.539
-1952.85
-819.965
992.01
2548.3
4157.92
5506.93
6529.11
7228.77
7616.67
7739.56
7633.78
7341.31
6892.04
6300.59
5577.95
4703.17
3669.39
2443.93
1048.27
-516.597
-1833.58
-780.233
-556.71
1081.51
2494.66
3825.73
4991.77
5895.14
6531.83
6894.4
7018.78
6924.55
6642.21
6185.46
5559.02
4758.22
3767.18
2597.67
1239.88
-285.546
-1711.02
-816.037
-1678.12
-54.0446
1311
2567.86
3709.7
4668.86
5401.19
5892.71
6149.15
6185.7
6017.91
5657.02
5106.59
4358.35
3407.57
2289.37
1035.48
-458.635
-1889.09
-864.398
-2775.36
-1135.68
200.654
1385.81
2473.79
3426.9
4200.55
4765.44
5112.49
5243.04
5163.4
4878.26
4388.17
3685.62
2771.8
1696.16
506.909
-877.987
-2238.5
-981.805
-3939.03
-2276.17
-919.66
245.588
1296.33
2230.71
3014.52
3617.46
4020.13
4214.84
4198.35
3969.83
3526.32
2859.05
1971.82
935.226
-178.193
-1493.49
-2710.07
-1091.33
-4998.92
-3357.61
-1994.27
-828.964
209.294
1132.13
1918.43
2540.62
2976.9
3213.17
3240.04
3051.14
2640.35
1997.79
1131.42
121.542
-941.368
-2139.67
-3203.34
-1229.57
-5840.3
-4281.9
-2937.57
-1775.74
-742.164
175.565
962.724
1595.35
2051.54
2314.17
2369.53
2207.27
1818.25
1190.94
335.322
-652.535
-1660.92
-2790.5
-3682.56
-1335.97
-6423.61
-4963.73
-3675.91
-2538.43
-1516.98
-605.902
179.787
817.364
1285.08
1564.23
1638.46
1494.01
1118.91
500.217
-349.958
-1328.99
-2309.43
-3346.41
-4108.1
-1456.06
-6720.23
-5382.56
-4173.9
-3080.89
-2084.98
-1187.9
-408.696
228.8
702.149
991.602
1078.84
947.532
583.087
-30.4888
-882.074
-1858.61
-2816.99
-3830.08
-4480.95
-1540.2
-6743.03
-5533.52
-4419.11
-3387.58
-2429.77
-1555.85
-789.664
-157.783
316.111
611.266
707.994
588.267
234.597
-372.591
-1225.01
-2211.66
-3182.56
-4168.98
-4781.08
-1639.23
-6532.37
-5448.01
-4425.02
-3460.35
-2548.39
-1705.2
-958.645
-338.171
130.958
427.136
530.314
421.862
82.7751
-511.569
-1360.65
-2355.59
-3345.05
-4391.87
-5016.56
-1701.99
-6129.61
-5146.47
-4209.25
-3310.57
-2448.04
-1640.68
-919.374
-316.103
142.352
433.69
538.602
439.835
118.962
-451.023
-1278.67
-2273.04
-3302.15
-4408.08
-5139.49
-1775.87
-5552.22
-4651.91
-3790.58
-2953.48
-2141.07
-1372.26
-680.532
-99.416
342.034
621.248
719.513
623.878
321.212
-212.92
-993.296
-1947.14
-2973.94
-4205.55
-5131.28
-1800.25
-4806.88
-3977.59
-3180.71
-2400.84
-1636.82
-907.511
-247.364
308.44
728.321
987.626
1067.98
961.209
664.474
167.964
-536.564
-1391.18
-2362.99
-3658.07
-4846.7
-1784.08
-3907.57
-3132.19
-2385.07
-1656.1
-936.25
-245.852
384.298
914.945
1313.29
1548.01
1599.3
1459.41
1138.54
653.412
27.3722
-661.366
-1433.15
-2696.15
-4216.14
-1667.84
-2846.96
-2104.15
-1397.75
-710.812
-32.3107
623.844
1227.49
1739.92
2122.7
2338
2356.46
2163.47
1776.74
1236.23
632.806
125.672
-348.723
-1390.9
-3040.02
-1350.59
-1603.91
-884.827
-216.812
432.109
1070.46
1696.75
2278.71
2783.45
3163.63
3377.38
3376.66
3132.56
2643.03
1957.23
1240.31
747.902
570.772
116.776
-1406.69
-907.21
-207.243
470.614
1098.33
1698.48
2293.63
2882.36
3443.64
3942.11
4334.27
4568.64
4585.58
4329.85
3758.16
2886.76
1884.32
1132.9
985
918.182
10.4497
-150.732
1132.8
1725.23
2277.79
2798.72
3321.17
3844.54
4358.81
4829.88
5224.15
5488.28
5564
5373.97
4835.69
3899.99
2622.2
1303.13
402.255
401.52
598.781
263.363
1808.35
2265.57
2666.83
3044.5
3423.09
3812.13
4200.63
4571.58
4898.54
5148.67
5275.95
5217.3
4888.94
4190.76
3020.48
1406.01
-191.197
-906.34
-122.197
-393.694
666.98
790.207
887.395
978.672
1069.91
1165.38
1261.5
1356.34
1443.2
1516.53
1565.49
1576.46
1529.17
1385.86
1088.7
553.986
-208.979
-612.181
436.467
135.459
-921.822
-5655.15
-9288.75
-11883.6
-13300.4
-13436.1
-12302.7
-10013.5
-6789.43
-2845.13
-799.471
-5063.54
-8366.28
-10779.3
-12190.3
-12504.4
-11703.5
-9860.19
-7197.63
-3894.26
-720.251
-4637.54
-7713.76
-10038.6
-11522.3
-12073.2
-11647.4
-10281.5
-8116.23
-5191.31
-646.224
-4247.27
-7106.92
-9331.21
-10852.6
-11586.5
-11479.7
-10538.5
-8839.23
-6313.33
-569.732
-3870.97
-6514.42
-8621.71
-10144.6
-11010.9
-11163.6
-10590
-9303.38
-7211.19
-490.647
-3508.4
-5939.04
-7916.24
-9410.07
-10360.4
-10709.6
-10427.3
-9497.67
-7819.55
-410.737
-3162.78
-5386.54
-7225.51
-8665
-9655.01
-10139.9
-10082.4
-9445
-8147.14
-331.967
-2836.76
-4861.53
-6557.88
-7923.33
-8916
-9484.54
-9584.21
-9171.53
-8190.83
-254.654
-2529.09
-4364.02
-5916.23
-7192.59
-8159.11
-8767.12
-8968.6
-8716.48
-7992.5
-179.709
-2239.38
-3892.52
-5300.58
-6477.56
-7396.02
-8008.29
-8263.23
-8120.83
-7589.36
-105.445
-1961.92
-3441.94
-4706.4
-5777.62
-6630.18
-7219.53
-7494.81
-7420.84
-7028.13
-31.7573
-1695.97
-3005.08
-4127.37
-5086.05
-5860.28
-6406.15
-6673.55
-6630.1
-6325.69
45.379
-1429.36
-2569.79
-3549.33
-4388.91
-5074.53
-5559.76
-5795.07
-5751.07
-5496.19
124.26
-1156.02
-2126.15
-2953.13
-3668.84
-4251.79
-4661.96
-4842.61
-4776.71
-4539.14
214.561
-861.874
-1652.4
-2318.99
-2896.85
-3363.58
-3680.5
-3792.26
-3685.78
-3439.64
314.555
-552.128
-1143.99
-1638.69
-2057.63
-2393.33
-2598.05
-2625.43
-2456.2
-2175.42
419.324
-224.651
-617.919
-921.809
-1169.63
-1354.41
-1436.34
-1362.02
-1117.16
-782.764
497.51
60.3992
-137.315
-253.357
-333.27
-369.419
-332.49
-165.893
144.207
500.07
467.959
231.138
202.929
235.453
288.864
357.825
469.52
668.048
948.694
1254.42
140.033
105.604
131.721
172.906
215.171
256.211
304.501
369.73
437.241
517.054
)
;

boundaryField
{
    left
    {
        type            symmetryPlane;
    }
    right
    {
        type            calculated;
        value           nonuniform List<scalar> 
30
(
-0.000171562
-0.000843971
-0.00148569
-0.00209816
-0.00268392
-0.00323264
-0.00373384
-0.0042283
-0.00477862
-0.00537576
-0.0058753
-0.00623573
-0.00649901
-0.00669289
-0.00685188
-0.00700577
-0.0071753
-0.00737227
-0.00760418
-0.0078857
-0.00822476
-0.00863826
-0.00915142
-0.00978678
-0.010573
-0.0114901
-0.0120168
-0.00999855
0.00133601
168.464
)
;
    }
    down
    {
        type            symmetryPlane;
    }
    up
    {
        type            calculated;
        value           nonuniform List<scalar> 
30
(
0.000129728
0.000634699
0.00111063
0.00156027
0.00198895
0.00239639
0.00277368
0.0031121
0.00341609
0.00369467
0.00390798
0.00407874
0.00425153
0.00441955
0.0045797
0.00473267
0.00488116
0.00503277
0.00519638
0.0053769
0.00558902
0.00584502
0.00616815
0.00659319
0.0071479
0.00777362
0.00811037
0.00677317
-0.00104505
-168.464
)
;
    }
    hole
    {
        type            calculated;
        value           nonuniform List<scalar> 
20
(
-595.778
8098.75
15786.9
21618.1
24994.3
25527
23140
18258.1
11562.7
3907.92
-4697.88
-13765.9
-21572.2
-27270.8
-30462.9
-30514.6
-28126
-23622.6
-16964
-9258.16
)
;
    }
    frontAndBack
    {
        type            empty;
    }
}


// ************************************************************************* //
