/*--------------------------------*- C++ -*----------------------------------*\
  =========                 |
  \\      /  F ield         | OpenFOAM: The Open Source CFD Toolbox
   \\    /   O peration     | Website:  https://openfoam.org
    \\  /    A nd           | Version:  dev
     \\/     M anipulation  |
\*---------------------------------------------------------------------------*/
FoamFile
{
    version     2.0;
    format      ascii;
    class       volScalarField;
    location    "100";
    object      sigmaxz;
}
// * * * * * * * * * * * * * * * * * * * * * * * * * * * * * * * * * * * * * //

dimensions      [1 -1 -2 0 0 0 0];

internalField   nonuniform List<scalar> 
1000
(
6.37561e-10
4.3254e-09
-3.49049e-09
-2.57996e-09
5.92703e-09
3.00558e-09
-2.26452e-09
-4.89281e-10
-6.83758e-09
0
-3.31617e-09
0
2.72942e-09
-5.05494e-09
-2.50382e-09
4.91619e-09
2.08645e-09
2.05718e-09
0
0
0
0
3.0606e-09
2.12862e-09
3.26649e-11
-4.8024e-09
-3.89172e-10
-2.1963e-09
2.79483e-09
7.09083e-10
-1.65615e-09
-1.60188e-09
-1.64695e-09
1.78211e-09
4.6462e-09
-2.55885e-09
-2.3336e-09
-5.6064e-09
-3.53896e-09
2.67247e-09
-2.14756e-09
3.85441e-11
-4.83613e-09
-7.63479e-10
1.7199e-09
4.4337e-09
1.06522e-09
1.33946e-09
-6.46201e-09
-1.81489e-09
-4.05243e-09
3.1866e-11
-3.18758e-11
-6.31193e-10
-2.94362e-09
-7.87054e-11
2.51315e-09
6.84842e-09
1.12188e-09
-3.04523e-09
1.66375e-09
-8.14957e-10
1.72029e-09
5.45023e-10
4.1407e-09
-3.94411e-09
-2.48062e-09
-2.49868e-09
1.33967e-09
-7.75518e-10
6.26321e-09
-3.85343e-09
-2.75031e-11
-7.47501e-10
6.8567e-09
7.83526e-10
3.59626e-11
-2.00904e-09
-4.72134e-10
-2.29274e-10
4.37074e-09
-3.6824e-09
-3.90455e-10
-6.64703e-10
5.04525e-10
3.3588e-09
-5.26242e-10
5.09044e-09
1.19826e-09
1.58303e-09
4.39598e-09
1.14258e-10
1.65704e-09
-1.50428e-10
7.23475e-12
3.05167e-09
-1.83013e-10
2.5643e-09
1.97505e-10
4.96747e-11
1.35699e-09
2.99906e-09
-1.82457e-09
0
-4.10457e-09
-4.30262e-11
4.47346e-09
2.26586e-09
2.60843e-09
2.70903e-10
8.15251e-11
1.84112e-09
-1.90558e-09
-1.81075e-09
0
-2.27091e-10
4.62893e-09
1.69393e-11
-1.02687e-08
1.60948e-10
-4.45469e-10
1.91236e-09
3.28624e-10
-1.78836e-09
0
-6.75831e-10
-9.52354e-10
2.82267e-09
3.01832e-12
-2.96258e-09
7.64119e-10
-1.48867e-09
4.1889e-10
0
2.99729e-09
6.37131e-09
-4.26657e-09
-6.86278e-09
2.8313e-10
7.11215e-10
-1.13174e-09
2.15593e-09
-6.8675e-10
3.59427e-09
5.51577e-11
-3.04607e-09
2.19784e-10
0
-5.35664e-09
2.81124e-10
-3.4534e-09
-2.67031e-09
-2.30066e-09
-1.65594e-09
1.18417e-09
2.66747e-09
2.6593e-11
-3.23904e-09
2.79491e-12
-1.12141e-09
-9.58378e-10
-5.3355e-11
-8.03409e-11
-3.32754e-09
3.58408e-09
-1.4751e-09
2.81662e-09
1.48832e-11
-1.56343e-09
-8.72521e-10
2.85107e-09
-2.44497e-09
1.47773e-09
-1.45229e-09
1.53211e-10
-2.09717e-09
-3.74685e-09
3.78512e-09
2.16799e-09
2.88283e-09
4.63268e-09
4.8632e-09
-7.23159e-11
5.21549e-10
2.00986e-09
1.70173e-09
3.82841e-09
-2.48494e-09
-2.37494e-09
6.76439e-10
8.68101e-11
1.20356e-09
-1.33666e-09
5.48082e-10
-4.31725e-11
-2.18261e-09
3.18965e-09
-1.17122e-09
-5.54554e-09
6.47476e-09
5.58734e-09
1.84824e-10
-8.1071e-09
-2.71813e-09
-2.1536e-10
0
0
2.65377e-09
6.46761e-11
5.24336e-09
1.67857e-10
-6.98178e-11
1.40544e-10
-7.74179e-09
2.52955e-09
9.14267e-12
-2.53955e-09
2.51677e-09
-4.97317e-09
-2.50794e-09
8.38328e-09
1.75664e-10
-2.63461e-09
8.37385e-09
1.0559e-10
-8.15024e-09
2.58125e-10
0
5.53265e-11
2.07002e-10
2.92133e-09
5.26314e-11
-2.5377e-09
2.55182e-09
2.57641e-09
-2.52542e-09
-2.52125e-09
-4.99884e-09
-4.16444e-11
1.6558e-09
2.69711e-09
2.67348e-10
-8.01067e-09
2.23238e-09
8.23135e-09
-8.0016e-09
-2.77757e-09
5.20774e-09
-4.81569e-09
-5.26172e-09
5.00399e-09
7.59123e-09
4.96926e-11
-2.52266e-09
2.47119e-09
8.65138e-12
-2.48551e-09
2.42512e-09
2.36492e-09
9.18625e-13
0
2.51909e-10
2.61251e-09
2.87111e-09
0
-2.27912e-09
-2.95317e-09
-5.07077e-09
-3.85614e-10
4.72305e-09
2.20684e-09
4.15392e-10
-2.04569e-09
2.3193e-09
2.36886e-09
-2.43638e-09
-7.6342e-12
7.21664e-09
-2.34429e-09
-2.41635e-09
4.94995e-09
-4.43316e-10
-5.51452e-09
2.61654e-09
6.22977e-09
-2.59358e-09
0
2.46212e-09
-6.83992e-10
-2.72542e-09
-4.33357e-09
-4.76783e-09
6.48864e-09
7.05296e-09
1.52227e-10
-2.24455e-09
1.89123e-10
7.59516e-11
4.75003e-09
2.34635e-09
2.77873e-09
1.12597e-10
-2.8812e-09
-8.15292e-09
2.5701e-09
4.96503e-09
-2.40862e-09
1.97227e-09
3.50446e-09
-6.97368e-09
-2.50194e-09
1.11888e-08
1.32601e-09
-6.93561e-09
-2.1539e-09
-4.92335e-09
-5.62615e-11
6.92641e-09
2.24026e-09
9.36355e-12
-2.73983e-09
2.27453e-09
6.56893e-10
-2.37765e-09
-9.39751e-10
4.47084e-10
3.3413e-09
-5.92127e-09
-3.4881e-09
5.72199e-09
-6.28511e-10
6.6901e-09
2.87095e-09
-6.39097e-09
3.72428e-09
1.13082e-10
-6.86219e-09
2.20197e-09
2.26561e-09
6.77187e-12
1.41685e-10
-2.16791e-09
-1.69759e-09
0
0
-5.08403e-09
6.31431e-09
1.17839e-08
-1.03255e-08
-7.21226e-09
4.30428e-09
1.7118e-09
9.94803e-10
5.13424e-09
1.51043e-10
-5.3395e-09
0
-2.4502e-10
6.24846e-11
2.26589e-11
-1.57559e-10
7.40847e-10
-8.69776e-10
-8.41088e-10
3.74756e-09
1.70795e-09
-3.32891e-09
-3.10934e-09
1.46488e-09
3.24126e-09
-1.65417e-09
9.32069e-11
-5.69161e-09
-1.33926e-10
5.0633e-10
-8.21883e-11
7.87285e-09
-1.08421e-10
-8.21427e-09
-1.36607e-09
2.62641e-11
-6.46424e-10
1.86298e-09
-6.40696e-09
-5.65478e-09
4.76669e-09
5.52727e-09
5.65807e-09
-3.8634e-09
1.61295e-10
-5.66601e-10
-5.59046e-09
0
9.24367e-10
-1.21155e-10
-6.82551e-10
1.84172e-09
2.31844e-10
-3.18479e-11
-2.14891e-11
2.46936e-09
-6.72169e-10
-1.12528e-09
5.99159e-10
6.37488e-10
1.87502e-10
-2.24826e-09
-1.31231e-09
2.99505e-09
-3.73577e-10
1.00739e-09
-2.98465e-10
0
-2.24463e-10
1.88236e-10
-1.52741e-10
-1.64388e-09
8.34241e-11
4.99018e-11
5.73938e-12
1.68452e-09
0
-1.76135e-09
2.9723e-23
-3.11789e-24
1.25251e-23
2.44428e-23
-1.76138e-09
0
1.7614e-09
-1.81873e-23
-1.76141e-09
1.76142e-09
1.21234e-23
-1.76143e-09
-1.21005e-23
1.76144e-09
1.76145e-09
-1.21013e-23
-4.03378e-24
1.76149e-09
1.46782e-13
-1.7612e-09
0
1.76153e-09
1.76171e-09
-1.76121e-09
-1.76104e-09
1.76139e-09
3.52352e-13
1.77279e-13
3.56085e-13
3.57071e-13
1.78806e-13
3.57782e-13
3.57632e-13
-1.76144e-09
1.78271e-13
1.7771e-13
5.88651e-14
6.80327e-09
-1.43343e-13
-3.52257e-09
5.94459e-23
3.5229e-09
0
-1.70002e-13
-3.52278e-09
7.27437e-23
3.5228e-09
1.80634e-13
-1.21004e-23
-7.26025e-23
-1.83708e-13
-3.63015e-23
-3.52288e-09
2.34659e-23
3.52308e-09
1.83194e-13
6.07296e-14
-2.63212e-13
1.76123e-09
-2.93131e-13
1.17336e-23
1.76106e-09
-1.76155e-09
-1.76156e-09
-3.48429e-13
1.7614e-09
1.76122e-09
-3.66814e-13
-1.7616e-09
-1.76179e-09
-1.87855e-13
1.76105e-09
-1.88743e-13
3.91119e-25
1.76107e-09
-3.75556e-13
-1.2457e-13
4.99485e-11
1.35528e-13
-1.76138e-09
0
1.76138e-09
1.76122e-09
-1.76122e-09
-1.7614e-09
1.7614e-09
-1.8307e-13
6.07177e-24
-1.8857e-13
0
1.91812e-13
0
-1.9306e-13
-1.76144e-09
6.04898e-24
-1.32229e-27
-2.01722e-24
1.71475e-09
-1.32574e-13
-1.76138e-09
3.05048e-23
-1.79805e-23
-1.64516e-13
-1.7079e-13
-1.7614e-09
0
1.76122e-09
-4.24103e-23
-1.76161e-09
1.76142e-09
-1.95968e-13
-1.76143e-09
-1.97581e-13
1.76144e-09
1.76145e-09
1.35384e-27
-4.03311e-24
-1.20473e-13
-1.30828e-13
-1.40508e-13
0
-1.57728e-13
0
-1.72136e-13
0
0
0
-1.92534e-13
0
0
-2.0059e-13
0
0
0
-2.02406e-13
-2.01786e-13
-6.705e-14
-1.71662e-09
0
1.40539e-13
0
1.58782e-13
1.66858e-13
0
0
0
1.92031e-13
1.96546e-13
2.00356e-13
0
0
0
2.08401e-13
0
2.08317e-13
2.07696e-13
6.90155e-14
-5.19245e-09
1.31297e-13
5.67158e-24
1.17344e-23
1.76141e-09
-1.76125e-09
-1.76124e-09
0
1.76142e-09
1.76162e-09
-6.05162e-24
-1.76122e-09
-1.76143e-09
2.1178e-13
1.76144e-09
2.15076e-13
3.89638e-25
1.76145e-09
-1.50064e-27
-2.01679e-24
1.76142e-09
-1.19188e-23
-1.76142e-09
0
1.76142e-09
1.76142e-09
-1.76143e-09
-1.76143e-09
1.76143e-09
-2.40509e-23
-3.88321e-25
1.19305e-23
-1.47723e-27
3.65544e-23
-1.21262e-23
1.21254e-23
-1.76144e-09
1.53803e-27
-1.20991e-23
5.09231e-28
-5.17877e-09
-6.04885e-24
-1.94543e-25
1.25157e-23
1.76143e-09
-1.76143e-09
-1.76143e-09
0
1.76143e-09
1.76144e-09
1.43583e-27
-1.76144e-09
-1.76144e-09
1.21006e-23
1.76144e-09
-3.91119e-25
3.91119e-25
1.76145e-09
-1.2099e-23
5.31645e-28
5.83794e-11
1.41022e-13
-1.76144e-09
0
1.76144e-09
1.76126e-09
-1.76125e-09
-1.76104e-09
1.76144e-09
-2.12164e-13
-3.94122e-25
-2.2362e-13
4.57007e-13
2.32941e-13
4.73965e-13
-2.40534e-13
-1.76145e-09
0
-1.21006e-23
0
1.69606e-09
-1.46453e-13
-1.76145e-09
1.17348e-23
8.40969e-24
-1.87192e-13
3.5227e-09
-1.76145e-09
-3.5229e-09
1.76123e-09
2.87519e-26
1.76122e-09
1.76145e-09
-2.40738e-13
-1.76145e-09
-3.52315e-09
1.76145e-09
1.76145e-09
6.05031e-24
-2.01677e-24
-6.05038e-24
-1.53026e-13
-2.27643e-27
0
2.5182e-27
1.93807e-13
-2.027e-13
-4.22146e-13
0
2.26143e-13
-2.42029e-23
2.38733e-13
-4.88242e-13
-2.491e-13
-5.08089e-13
2.594e-13
0
-3.77165e-27
2.41974e-23
-4.03482e-24
-1.76148e-09
6.06247e-24
5.67312e-24
1.1735e-23
1.76147e-09
-1.76147e-09
-1.76147e-09
0
1.76146e-09
1.76146e-09
-1.81494e-23
-1.76146e-09
-1.76146e-09
0
1.76146e-09
-6.45537e-24
3.94893e-25
1.76146e-09
1.21027e-23
-2.01743e-24
-1.57931e-13
0
3.02394e-24
0
-3.02517e-24
-1.21023e-23
0
0
0
-6.04871e-24
-6.05204e-24
1.77602e-27
0
0
0
1.90168e-27
0
3.02498e-23
-2.04603e-27
-6.98318e-28
-3.30935e-09
1.76168e-09
2.34681e-24
1.96242e-25
1.76149e-09
-1.76127e-09
-1.76126e-09
0
1.76148e-09
1.76173e-09
6.05215e-24
-1.76121e-09
-1.76147e-09
2.79785e-13
1.76147e-09
2.85256e-13
-1.19313e-23
1.76148e-09
3.97352e-27
2.12248e-29
1.76169e-09
1.79426e-13
-1.7617e-09
0
1.76129e-09
1.7615e-09
-1.76127e-09
-1.76149e-09
1.76149e-09
-3.59838e-23
-2.55267e-13
-3.91127e-25
1.88137e-27
2.82983e-13
1.99601e-27
1.21258e-23
-1.76146e-09
-2.73266e-13
-2.4413e-13
-7.12493e-14
-1.63268e-09
-1.76152e-09
-1.76152e-09
0
1.76151e-09
1.7615e-09
-1.7615e-09
-1.7615e-09
1.7615e-09
-2.40553e-23
1.2125e-23
-3.91948e-25
-1.71314e-27
1.21232e-23
-1.90059e-27
1.21228e-23
-1.76145e-09
0
0
0
2.33742e-09
-5.44646e-10
-2.47445e-09
3.85498e-10
-4.35703e-11
2.75437e-09
7.9305e-10
-3.86708e-10
-1.07521e-09
0
1.0684e-11
2.36883e-09
2.35129e-09
1.32999e-09
-9.33701e-11
-3.37827e-09
-1.1272e-10
2.29158e-09
-3.17914e-11
1.51502e-09
-2.1119e-11
-2.35158e-09
-2.31833e-09
3.4851e-09
2.32104e-09
3.50629e-09
-1.55189e-10
-3.31277e-09
-4.32895e-11
-1.11995e-09
-3.13738e-42
1.12182e-09
-1.60389e-10
-1.32676e-09
1.25241e-09
-2.4373e-09
-3.27165e-09
2.44973e-09
-9.67316e-11
3.88578e-09
1.15141e-09
1.20766e-09
0
-1.24393e-09
-1.16786e-09
6.57727e-11
-1.19342e-10
1.11376e-09
-8.53313e-11
-1.26027e-09
-2.31484e-09
1.22101e-09
3.52266e-09
-1.19578e-09
-1.24525e-09
1.2958e-10
1.26299e-09
1.18616e-09
9.10645e-11
-1.60862e-09
-3.13599e-42
-8.98429e-11
1.23399e-09
1.17726e-09
-3.68994e-09
-1.12178e-09
3.69747e-09
-2.64801e-09
-1.0659e-09
4.26528e-09
1.15927e-09
-4.29563e-11
2.17771e-11
2.76566e-11
-1.33228e-09
1.14523e-09
-5.48037e-11
-3.97679e-09
-1.14475e-11
2.69541e-09
2.0373e-11
-1.09782e-09
-1.18139e-09
3.68085e-09
7.31718e-12
-3.78943e-09
1.50181e-09
3.91587e-09
-2.94353e-10
-4.47515e-09
3.05594e-11
2.47491e-09
3.54354e-09
-2.5045e-09
4.39186e-10
-2.16043e-11
2.87115e-09
6.69625e-09
8.8197e-11
-3.35333e-09
-5.04873e-11
3.51167e-09
2.3243e-09
-3.64715e-09
-2.60184e-09
2.8273e-09
2.61289e-09
1.36694e-10
8.84078e-11
2.56911e-13
-2.40841e-09
-2.47311e-09
-1.22631e-09
-1.22219e-09
-2.76635e-09
-2.56298e-09
2.70615e-09
2.69365e-09
4.47555e-09
1.02476e-09
1.23036e-09
1.22832e-09
-1.18841e-09
3.13401e-11
-2.6994e-09
2.37523e-11
3.83764e-09
-2.23605e-13
-1.53329e-13
-1.69163e-09
-3.13402e-42
2.88936e-11
4.48739e-11
1.26923e-09
2.25724e-11
4.79191e-11
-1.38081e-12
-1.40034e-09
-5.78475e-11
1.74064e-09
-3.1339e-42
0
-1.33461e-10
0
-2.75111e-09
2.17628e-10
4.18842e-09
4.32254e-09
-1.69611e-09
-4.64521e-09
-9.82981e-12
3.69485e-09
2.7334e-11
8.50231e-11
-2.75013e-09
-3.99935e-09
4.26903e-09
-1.65788e-11
1.56953e-10
1.5568e-09
-1.22539e-09
-3.70158e-09
1.71039e-10
2.35583e-09
1.84626e-10
-2.86544e-09
9.90626e-11
2.90554e-09
-2.90394e-11
-9.75689e-12
3.52473e-14
5.63808e-11
3.57227e-09
-1.29527e-10
-3.89317e-09
0
-1.1158e-10
1.48768e-09
3.05352e-09
-1.94432e-09
-3.69479e-09
2.49987e-09
3.72687e-09
-3.68022e-09
-1.36477e-09
-6.12772e-11
0
-4.48481e-11
2.91943e-11
-7.79499e-14
3.77489e-09
2.34553e-09
-1.0422e-09
1.39204e-09
1.2063e-09
-1.48051e-09
3.49481e-11
-1.24497e-10
1.58482e-09
1.29573e-09
)
;

boundaryField
{
    left
    {
        type            symmetryPlane;
    }
    right
    {
        type            calculated;
        value           nonuniform List<scalar> 
30
(
4.0913e-20
-4.10269e-20
6.55858e-23
2.10963e-20
-5.52362e-20
3.40802e-20
2.0802e-20
7.27847e-20
-7.59631e-21
-6.1452e-20
-3.19443e-21
2.03015e-34
-4.50921e-20
-4.644e-20
9.50954e-20
3.52038e-34
-3.09414e-34
5.11494e-20
-5.27661e-20
2.66816e-35
-3.928e-34
-4.12601e-34
0
1.00126e-35
1.0336e-33
5.44827e-34
5.73997e-34
-1.54065e-35
-9.26507e-21
0
)
;
    }
    down
    {
        type            symmetryPlane;
    }
    up
    {
        type            calculated;
        value           nonuniform List<scalar> 
30
(
3.77489e-09
2.34553e-09
-1.0422e-09
1.39204e-09
1.2063e-09
-1.48051e-09
3.49481e-11
-1.24497e-10
1.58482e-09
1.29573e-09
-1.63268e-09
-1.76152e-09
-1.76152e-09
0
1.76151e-09
1.7615e-09
-1.7615e-09
-1.7615e-09
1.7615e-09
-2.40553e-23
1.2125e-23
-3.91948e-25
-1.71314e-27
1.21232e-23
-1.90059e-27
1.21228e-23
-1.76145e-09
0
0
0
)
;
    }
    hole
    {
        type            calculated;
        value           nonuniform List<scalar> 
20
(
4.05246e-13
-3.35294e-09
0
-1.51997e-09
-1.93876e-09
-3.76287e-09
2.05399e-09
6.28054e-09
4.23958e-09
4.31525e-09
-1.69106e-10
-5.01935e-10
-4.16563e-10
1.15912e-09
-2.13558e-09
-2.68181e-09
-6.1178e-10
3.55819e-09
3.96552e-09
4.66603e-14
)
;
    }
    frontAndBack
    {
        type            empty;
    }
}


// ************************************************************************* //
