/*--------------------------------*- C++ -*----------------------------------*\
  =========                 |
  \\      /  F ield         | OpenFOAM: The Open Source CFD Toolbox
   \\    /   O peration     | Website:  https://openfoam.org
    \\  /    A nd           | Version:  dev
     \\/     M anipulation  |
\*---------------------------------------------------------------------------*/
FoamFile
{
    version     2.0;
    format      ascii;
    class       volScalarField;
    location    "100";
    object      sigmaxx;
}
// * * * * * * * * * * * * * * * * * * * * * * * * * * * * * * * * * * * * * //

dimensions      [1 -1 -2 0 0 0 0];

internalField   nonuniform List<scalar> 
1000
(
-2434.07
-13680.4
-21282.4
-25608.7
-27614.5
-28183
-27842.8
-26969.9
-26050.7
-24270.8
-13952.3
-22948.9
-28791.4
-31334.5
-32105.4
-31744.4
-30871
-29637.8
-28233.3
-26244.4
-27692.7
-32336.6
-35217.7
-35818.5
-35129.2
-33786.9
-32157.5
-30349.8
-28398.4
-26014.1
-42578.1
-41670.9
-41024.4
-39171.9
-36861.2
-34381.3
-31935.8
-29480.3
-26946.3
-24150.6
-57966.3
-50564.7
-45779.3
-41416.7
-37427.7
-33830.3
-30555.9
-27463.5
-24440.6
-21325.5
-72433.5
-58509
-49656.9
-42733.8
-37150.2
-32487.1
-28475.5
-24848.9
-21421.3
-18064.9
-84755.7
-64871.4
-52405.7
-43316.8
-36352.8
-30797.9
-26163.2
-22102.3
-18383.6
-14858.9
-93936.1
-69463.3
-54143.6
-43378.3
-35365.8
-29120.1
-24023.9
-19652
-15724.6
-12087.7
-99400.7
-72197.2
-55102.1
-43210.2
-34498.7
-27798.4
-22391.5
-17819.1
-13766.5
-10075.8
-100933
-73537.8
-55298.9
-42668.9
-33509.9
-26549
-20967.8
-16296.4
-12188.9
-8492.11
6949.29
16835.8
21652.4
23211.8
22874.8
21599.5
19911.3
18091.6
16296
14577.5
8042.08
16500.3
20653.6
21729.1
21208.1
19879.3
18210.6
16454.5
14732.7
13069.4
10018.1
15888.2
18342.3
18662
17736.7
16280.1
14632.8
12979.8
11389.7
9779.04
12144.9
14600.6
15176
14373.6
12970.6
11351.4
9746.98
8234.29
6818.3
5270.04
14446.6
12943.1
11058.7
9203.74
7275.54
5515.16
3982.16
2648.73
1457.57
-11.6433
15848.6
10868.8
6693.53
3543.55
1103.58
-780.961
-2189.92
-3289.02
-4208.75
-5565.09
16490.9
8420.5
2144.03
-2173.98
-5113.3
-7059.79
-8294.29
-9099.05
-9671.66
-10864.8
15620
5250.1
-2734.16
-7854.03
-11115.6
-13019.6
-13965.6
-14361.5
-14489.2
-15424.5
12121.3
493.047
-8318.89
-13765.1
-16975.4
-18582.9
-19079.3
-18931.9
-18449.8
-18751.8
6409.26
-5621.04
-14437.9
-19690
-22496
-23642.7
-23625.9
-22962
-21636.3
-20678.7
13052.9
11730.9
10619.2
9654.94
8833.71
8146.76
7591.19
7158.64
6839.74
6628.99
6516.07
6503.39
6584.33
6777.09
7087.48
7527.61
8087.47
8670.83
9263.33
9619.81
11650.3
10527.2
9652.98
8879.05
8209.4
7649.34
7194.91
6846.98
6594.74
6439.42
6368.85
6391.46
6500.2
6710.86
7032.86
7482.43
8031.98
8596.49
9157.06
9527.09
8506.69
7753.83
7367.25
6999.04
6668.77
6390.82
6169.87
6013.38
5918.22
5889.98
5923.5
6028
6203.65
6470.8
6836.44
7314.37
7894.82
8494.55
9090.01
9515.71
4160.35
3885.56
4144.55
4327.8
4467.25
4584.98
4694.13
4810.19
4939.62
5094.95
5278.67
5506.89
5786.08
6134.51
6572.1
7117.93
7754.22
8409.91
9054.87
9516.84
-975.184
-718.263
271.986
1094.71
1787.21
2375.91
2881.42
3327.05
3730.1
4111.05
4482.98
4865.29
5273.27
5734.72
6267.86
6891.45
7609.7
8339.51
9034.16
9524.79
-6426.22
-5652.14
-3928.27
-2442.65
-1168.92
-78.1316
852.513
1656.77
2359.79
2992.99
3575.56
4137.22
4696.69
5283.03
5924.51
6650.85
7445.82
8247.55
8997.8
9532.6
-11700.2
-10493.8
-8125.28
-6028.44
-4209.01
-2635.87
-1292.4
-128.864
877.69
1775.71
2581.77
3339.3
4062.6
4799
5557.7
6374.25
7235.92
8100.11
8864.69
9501.57
-16282.8
-14802.7
-11947.6
-9397.61
-7121.3
-5164.82
-3441.88
-1969.04
-654.993
485.428
1537.63
2483.07
3405.23
4276.12
5181.6
6072.11
7009.27
7854.25
8660.53
9404.56
-19548.3
-17881.2
-14887.3
-12120
-9637.31
-7420.81
-5457.42
-3712.82
-2167.51
-777.49
472.886
1634.18
2713.91
3766.91
4779.78
5793.88
6745.75
7641.36
8570.81
9418.67
-21389.6
-19555.7
-16810.9
-14134.8
-11624.3
-9279.14
-7147.68
-5198.29
-3456.4
-1864.06
-436.383
899.004
2124.74
3318.52
4445.39
5553.35
6555.59
7597.97
8610.22
9410.67
-19510.8
-18164.5
-16650.5
-14690.3
-12540.1
-10393.6
-8302.04
-6350.55
-4516.79
-2844.88
-1276.46
158.383
1536.44
2824.37
4095.42
5274.17
6420.48
7435.2
8637.14
9521
-18048.3
-16274.4
-14937.4
-13402.8
-11693.8
-9894.82
-8084.26
-6313.75
-4616.78
-3004.56
-1479.08
-28.5821
1358.98
2702.87
4008.94
5252.54
6394.59
7576.76
8682.05
9512.44
-16436.9
-14699.2
-13350.7
-11975.5
-10501.6
-8947.84
-7350.65
-5755.59
-4190.48
-2676.49
-1216.11
190.676
1555.93
2888.31
4194.11
5451.82
6637.05
7690.07
8813.9
9648.61
-14471.6
-12984.2
-11683.3
-10399.6
-9081.51
-7712.99
-6306.43
-4884.51
-3471.21
-2081.29
-722.993
605.021
1907.23
3193.52
4465.14
5694.85
6833.43
7974.02
8938.46
9629.35
-12108.1
-10862.6
-9738.66
-8592.17
-7421.52
-6219.07
-4988.03
-3739.78
-2488.6
-1245.66
-16.8568
1197.79
2402.74
3604.42
4802.41
5980.33
7105.77
8073.24
9046.42
9739.27
-9336.43
-8403.68
-7478.7
-6506.37
-5502.86
-4472.44
-3418.99
-2349.16
-1271.6
-193.405
881.69
1954.66
3029.22
4111.69
5203.52
6278.93
7289.94
8309.14
9123.34
9677.37
-6275.47
-5576.91
-4892.85
-4132.05
-3322.52
-2481.2
-1616.12
-734.301
158.045
1056.08
1957.99
2864.97
3781.16
4712.5
5659.7
6613.09
7548.35
8347.06
9175.21
9758.49
-2951.21
-2499.89
-2043.93
-1500.44
-900.02
-261.75
403.061
1086.64
1783.25
2489.17
3202.82
3924.95
4659.03
5411.16
6186.42
6969.42
7726.29
8543.87
9205.6
9664.21
533.673
802.758
1024.72
1349.51
1735.1
2162.42
2618.68
3096.37
3589.97
4095.86
4611.43
5135.92
5670.75
6220.14
6789.92
7385.53
8005.45
8549.47
9221.91
9730.43
4160.24
4219.58
4250.92
4372.01
4548.08
4763.34
5008.23
5276.67
5564.27
5867.01
6181.31
6503.32
6829.9
7161.99
7507.18
7864.39
8230
8743.96
9216.17
9605.49
7865.35
7774.21
7615.37
7536.03
7506.72
7512.67
7547.8
7608.35
7691.07
7792.93
7908.95
8032.7
8154.42
8266.73
8368.21
8473.02
8616.18
8758.84
9212.31
9658.29
11675.5
11407.7
11074.8
10806.2
10578.5
10381.5
10212.7
10070.1
9953.11
9859.4
9785.84
9723.69
9658.6
9570.69
9445.16
9263.83
9053.17
9064.54
9209.2
9500.58
15544.1
15131
14609.1
14153.3
13733
13341.8
12978.1
12641.2
12332.2
12050.9
11798.1
11568.7
11346.9
11104.2
10790.7
10368
9868.39
9343.24
9343.61
9573.06
19488.4
18872
18180.8
17544.7
16940.4
16368
15821.9
15304.9
14813.2
14353.3
13927.1
13543.6
13194.3
12857.9
12458.5
11884
11078.1
10331.3
9735.92
9495.69
23461.4
22668.7
21784.8
20958.5
20178.5
19437.2
18729.1
18048.5
17391.2
16759.3
16163.9
15621.8
15159.4
14774.9
14402
13899.7
13099
11828.9
10779.5
9850.24
27492
26471.4
25388.9
24373
23428.6
22536.1
21692.2
20872.1
20075.2
19286.1
18523.4
17803.1
17186.6
16715.1
16413.5
16177.1
15697.5
14777.1
12931.5
10468.8
31512.2
30275.2
28969.3
27771
26669.7
25654.4
24697.6
23780.3
22875.4
21970.8
21051.8
20140.5
19280.4
18577.9
18180.8
18219.5
18626.3
18326.2
16082.5
11794.1
35516.4
33982.8
32474.6
31106.5
29868.6
28751.7
27717
26746.9
25797.7
24847.1
23847.2
22783.9
21644.7
20504.5
19559.4
19229.6
19798.7
20513.1
19615.3
14115.7
39486.3
37477.4
35799.9
34284.9
32935
31728.4
30653.1
29677.1
28775.2
27891
26967.9
25911.4
24623.4
22999.2
21035
18993.2
17519.7
17704
18166.8
14880.8
43156.8
40804.5
38966.2
37310.2
35826.8
34520.7
33405.5
32472.9
31706.1
31052.9
30438.5
29729.3
28733.4
27150.9
24532.3
20306.9
14034.7
5578.47
-1727.34
5882.97
-5105.23
-6524.43
-8384.78
-10964
-13983.7
-17096.6
-19904.2
-21952.3
-22805
-21597.1
-1858.13
-3086.29
-4732.21
-7062.86
-9867.92
-12888.2
-15817.8
-18306.9
-20106.4
-19966.9
1142.54
34.1365
-1505.7
-3723.34
-6452.26
-9482.54
-12556.7
-15396.5
-17742.7
-18258.2
3963.28
2953.06
1525.79
-557.626
-3163.02
-6115.57
-9203.9
-12197.2
-14897.2
-15924.4
6663.61
5756.53
4444.61
2507.2
56.1178
-2765.12
-5781.34
-8819.23
-11690.6
-13180
9318.11
8498.43
7299.67
5510.72
3224.9
562.836
-2328.29
-5308.38
-8251.05
-10025.7
11966.8
11238
10144.1
8495.45
6371.14
3877.37
1138.45
-1749.85
-4670.72
-6652.08
14659.3
14003
13006.4
11488
9518.33
7192.4
4611.41
1851.62
-999.136
-3063.16
17413.6
16834.9
15925.7
14524.9
12697.5
10527.9
8101.68
5479.01
2745.36
627.043
20265.4
19746.8
18918.4
17625.6
15928.4
13903.3
11627.4
9153.26
6535.19
4446.14
23223.6
22773.5
22017.1
20820.4
19237.9
17343
15204.9
12858.5
10359.8
8301.94
26320.4
25921.1
25231.9
24122.6
22643.5
20865.6
18846
16618
14229.4
12246.6
29564.5
29225.9
28595.6
27561.4
26171.2
24490
22570.9
20449.6
18178.5
16233.2
32994.1
32696.7
32119
31150.1
29836
28235.5
26408.2
24389.5
22210.8
20327.8
36623.1
36377.1
35841.7
34924.2
33667.1
32132.2
30380.8
28442.1
26336.3
24459
40517.2
40291.3
39784.6
38905.8
37689.1
36203
34503.2
32617.2
30550
28665.1
44694.7
44486.1
43997.1
43137.2
41937.4
40465.1
38782.6
36908.6
34855
32887.2
49194.7
48984.9
48509.1
47647.3
46431.1
44929.5
43207.4
41289.2
39183.7
37150.3
53869.2
53765.5
53296.1
52401.4
51127.8
49543.9
47711.3
45670.1
43399.7
41402.7
58679
59160.3
58613.7
57602.6
56205
54453.2
52384
50026.6
47514
45397.1
)
;

boundaryField
{
    left
    {
        type            symmetryPlane;
    }
    right
    {
        type            calculated;
        value           uniform 10000;
    }
    down
    {
        type            symmetryPlane;
    }
    up
    {
        type            calculated;
        value           nonuniform List<scalar> 
30
(
58694.6
59145.5
58595.5
57582.4
56182.3
54429
52359.5
50000.9
47487.1
45370.3
43138
40795.5
38954.8
37298.6
35812.9
34507.2
33388.8
32454
31679.3
31018.7
30391.3
29671.6
28664.5
27081.7
24501.6
20417.4
14525.3
6810.12
-284.191
4419.55
)
;
    }
    hole
    {
        type            calculated;
        value           nonuniform List<scalar> 
20
(
644.522
-10273.2
-23626.8
-38601.8
-54216.5
-69193.6
-82047.6
-91788.8
-97691.1
-99458.1
184.59
1629.33
4291.02
7691.2
11238.4
14067.5
15751.4
15784.2
13373.4
8558.18
)
;
    }
    frontAndBack
    {
        type            empty;
    }
}


// ************************************************************************* //
