/*--------------------------------*- C++ -*----------------------------------*\
  =========                 |
  \\      /  F ield         | OpenFOAM: The Open Source CFD Toolbox
   \\    /   O peration     | Website:  https://openfoam.org
    \\  /    A nd           | Version:  dev
     \\/     M anipulation  |
\*---------------------------------------------------------------------------*/
FoamFile
{
    version     2.0;
    format      ascii;
    class       volVectorField;
    location    "80";
    object      D;
}
// * * * * * * * * * * * * * * * * * * * * * * * * * * * * * * * * * * * * * //

dimensions      [0 1 0 0 0 0 0];

internalField   nonuniform List<vector> 
1000
(
(0.0011758 0.00127245 0)
(0.00128766 0.00139341 0)
(0.00139953 0.0015144 0)
(0.0015114 0.00163539 0)
(0.00162328 0.0017564 0)
(0.00173516 0.00187742 0)
(0.00184705 0.00199845 0)
(0.00195894 0.00211948 0)
(0.00207083 0.00224051 0)
(0.00218272 0.00236155 0)
(0.00107238 0.00136081 0)
(0.0011744 0.00149018 0)
(0.00127643 0.00161957 0)
(0.00137847 0.00174898 0)
(0.00148051 0.00187839 0)
(0.00158255 0.00200781 0)
(0.00168459 0.00213724 0)
(0.00178664 0.00226668 0)
(0.00188869 0.00239612 0)
(0.00199074 0.00252556 0)
(0.000962347 0.00144079 0)
(0.00105391 0.00157777 0)
(0.00114547 0.00171477 0)
(0.00123704 0.00185178 0)
(0.00132861 0.0019888 0)
(0.00142018 0.00212583 0)
(0.00151175 0.00226286 0)
(0.00160333 0.00239991 0)
(0.00169491 0.00253695 0)
(0.00178649 0.00267401 0)
(0.000846382 0.00151189 0)
(0.000926911 0.00165563 0)
(0.00100744 0.00179939 0)
(0.00108797 0.00194316 0)
(0.00116851 0.00208694 0)
(0.00124905 0.00223074 0)
(0.00132959 0.00237454 0)
(0.00141013 0.00251834 0)
(0.00149067 0.00266215 0)
(0.00157122 0.00280597 0)
(0.000725198 0.00157366 0)
(0.000794198 0.00172328 0)
(0.0008632 0.00187292 0)
(0.000932203 0.00202256 0)
(0.00100121 0.00217222 0)
(0.00107021 0.00232189 0)
(0.00113922 0.00247157 0)
(0.00120823 0.00262125 0)
(0.00127724 0.00277093 0)
(0.00134626 0.00292063 0)
(0.000599542 0.00162574 0)
(0.000656588 0.00178031 0)
(0.000713634 0.0019349 0)
(0.000770681 0.0020895 0)
(0.000827729 0.00224411 0)
(0.000884779 0.00239873 0)
(0.00094183 0.00255336 0)
(0.000998883 0.00270799 0)
(0.00105594 0.00286263 0)
(0.00111299 0.00301728 0)
(0.000470189 0.00166779 0)
(0.000514927 0.00182636 0)
(0.000559666 0.00198495 0)
(0.000604405 0.00214355 0)
(0.000649145 0.00230216 0)
(0.000693886 0.00246078 0)
(0.000738629 0.00261941 0)
(0.000783372 0.00277804 0)
(0.000828117 0.00293668 0)
(0.000872863 0.00309533 0)
(0.000337936 0.00169955 0)
(0.000370091 0.00186115 0)
(0.000402246 0.00202276 0)
(0.000434401 0.00218438 0)
(0.000466557 0.00234601 0)
(0.000498713 0.00250765 0)
(0.000530871 0.0026693 0)
(0.000563029 0.00283096 0)
(0.000595188 0.00299262 0)
(0.000627349 0.00315429 0)
(0.000203599 0.00172084 0)
(0.000222972 0.00188446 0)
(0.000242344 0.00204809 0)
(0.000261717 0.00221174 0)
(0.00028109 0.0023754 0)
(0.000300464 0.00253907 0)
(0.000319838 0.00270274 0)
(0.000339213 0.00286642 0)
(0.000358588 0.00303011 0)
(0.000377964 0.0031938 0)
(6.80063e-05 0.00173151 0)
(7.44771e-05 0.00189615 0)
(8.09479e-05 0.0020608 0)
(8.74189e-05 0.00222546 0)
(9.38899e-05 0.00239014 0)
(0.000100361 0.00255482 0)
(0.000106832 0.00271951 0)
(0.000113304 0.00288421 0)
(0.000119776 0.00304891 0)
(0.000126248 0.00321361 0)
(0.00173081 6.80288e-05 0)
(0.00189543 7.44947e-05 0)
(0.00206008 8.09619e-05 0)
(0.00222475 8.74302e-05 0)
(0.00238943 9.38994e-05 0)
(0.00255411 0.000100369 0)
(0.00271881 0.000106839 0)
(0.00288351 0.00011331 0)
(0.00304822 0.000119781 0)
(0.00321293 0.000126252 0)
(0.00172014 0.000203667 0)
(0.00188375 0.000223025 0)
(0.00204739 0.000242387 0)
(0.00221104 0.000261752 0)
(0.0023747 0.00028112 0)
(0.00253837 0.000300489 0)
(0.00270205 0.00031986 0)
(0.00286574 0.000339232 0)
(0.00302943 0.000358604 0)
(0.00319312 0.000377977 0)
(0.00169886 0.000338051 0)
(0.00186045 0.000370181 0)
(0.00202207 0.000402318 0)
(0.00218369 0.000434461 0)
(0.00234533 0.000466608 0)
(0.00250698 0.000498758 0)
(0.00266864 0.00053091 0)
(0.0028303 0.000563063 0)
(0.00299196 0.000595218 0)
(0.00315363 0.000627373 0)
(0.00166711 0.00047035 0)
(0.00182569 0.000515055 0)
(0.00198428 0.000559771 0)
(0.00214289 0.000604493 0)
(0.00230151 0.000649221 0)
(0.00246014 0.000693953 0)
(0.00261877 0.000738688 0)
(0.00277741 0.000783425 0)
(0.00293606 0.000828164 0)
(0.0030947 0.000872904 0)
(0.00162509 0.00059975 0)
(0.00177967 0.000656756 0)
(0.00193426 0.000713773 0)
(0.00208887 0.0007708 0)
(0.0022435 0.000827834 0)
(0.00239813 0.000884872 0)
(0.00255276 0.000941914 0)
(0.0027074 0.00099896 0)
(0.00286205 0.00105601 0)
(0.0030167 0.00111306 0)
(0.00157304 0.000725453 0)
(0.00172267 0.000794408 0)
(0.00187232 0.000863377 0)
(0.00202198 0.000932357 0)
(0.00217165 0.00100134 0)
(0.00232133 0.00107034 0)
(0.00247102 0.00113934 0)
(0.0026207 0.00120834 0)
(0.0027704 0.00127734 0)
(0.0029201 0.00134635 0)
(0.0015113 0.000846684 0)
(0.00165506 0.000927164 0)
(0.00179884 0.00100766 0)
(0.00194263 0.00108817 0)
(0.00208642 0.00116868 0)
(0.00223023 0.00124921 0)
(0.00237404 0.00132974 0)
(0.00251785 0.00141027 0)
(0.00266167 0.00149081 0)
(0.00280549 0.00157134 0)
(0.00144024 0.000962695 0)
(0.00157724 0.0010542 0)
(0.00171426 0.00114573 0)
(0.00185129 0.00123727 0)
(0.00198833 0.00132882 0)
(0.00212537 0.00142038 0)
(0.00226242 0.00151194 0)
(0.00239947 0.00160351 0)
(0.00253653 0.00169508 0)
(0.00267359 0.00178665 0)
(0.0013603 0.00107277 0)
(0.0014897 0.00117475 0)
(0.00161912 0.00127674 0)
(0.00174854 0.00137875 0)
(0.00187797 0.00148077 0)
(0.00200741 0.0015828 0)
(0.00213685 0.00168483 0)
(0.0022663 0.00178687 0)
(0.00239575 0.00188891 0)
(0.0025252 0.00199095 0)
(0.00127197 0.00117623 0)
(0.00139298 0.00128805 0)
(0.00151399 0.00139988 0)
(0.00163501 0.00151173 0)
(0.00175604 0.00162359 0)
(0.00187707 0.00173546 0)
(0.00199811 0.00184733 0)
(0.00211915 0.00195921 0)
(0.00224019 0.00207109 0)
(0.00236124 0.00218298 0)
(0.00337715 0.0001292 0)
(0.00354241 0.000128561 0)
(0.00370767 0.000127921 0)
(0.00387292 0.000127281 0)
(0.00403818 0.000126641 0)
(0.00420343 0.000126002 0)
(0.00436869 0.000125362 0)
(0.00453395 0.000124722 0)
(0.0046992 0.000124083 0)
(0.00486446 0.000123443 0)
(0.00502972 0.000122803 0)
(0.00519497 0.000122163 0)
(0.00536023 0.000121523 0)
(0.00552549 0.000120884 0)
(0.00569074 0.000120244 0)
(0.005856 0.000119604 0)
(0.00602126 0.000118964 0)
(0.00618652 0.000118324 0)
(0.00635178 0.000117684 0)
(0.00651704 0.000117044 0)
(0.00335734 0.000386822 0)
(0.00352361 0.000384942 0)
(0.00368988 0.000383063 0)
(0.00385616 0.000381184 0)
(0.00402243 0.000379304 0)
(0.0041887 0.000377425 0)
(0.00435497 0.000375546 0)
(0.00452125 0.000373667 0)
(0.00468752 0.000371787 0)
(0.00485379 0.000369908 0)
(0.00502006 0.000368029 0)
(0.00518634 0.000366149 0)
(0.00535261 0.00036427 0)
(0.00551888 0.00036239 0)
(0.00568516 0.00036051 0)
(0.00585143 0.00035863 0)
(0.00601771 0.00035675 0)
(0.00618398 0.00035487 0)
(0.00635026 0.00035299 0)
(0.00651654 0.000351109 0)
(0.00331783 0.000642111 0)
(0.00348613 0.000639111 0)
(0.00365443 0.000636111 0)
(0.00382273 0.000633112 0)
(0.00399103 0.000630112 0)
(0.00415932 0.000627113 0)
(0.00432762 0.000624114 0)
(0.00449592 0.000621114 0)
(0.00466422 0.000618115 0)
(0.00483252 0.000615115 0)
(0.00500082 0.000612115 0)
(0.00516912 0.000609116 0)
(0.00533742 0.000606116 0)
(0.00550572 0.000603116 0)
(0.00567402 0.000600115 0)
(0.00584233 0.000597115 0)
(0.00601063 0.000594114 0)
(0.00617893 0.000591113 0)
(0.00634723 0.000588112 0)
(0.00651554 0.000585111 0)
(0.00325887 0.000893529 0)
(0.0034302 0.000889607 0)
(0.00360152 0.000885685 0)
(0.00377284 0.000881763 0)
(0.00394416 0.000877841 0)
(0.00411549 0.00087392 0)
(0.00428681 0.000869999 0)
(0.00445813 0.000866077 0)
(0.00462946 0.000862156 0)
(0.00480078 0.000858234 0)
(0.00497211 0.000854312 0)
(0.00514343 0.000850391 0)
(0.00531476 0.000846469 0)
(0.00548608 0.000842546 0)
(0.00565741 0.000838624 0)
(0.00582874 0.000834701 0)
(0.00600006 0.000830778 0)
(0.00617139 0.000826854 0)
(0.00634272 0.000822931 0)
(0.00651405 0.000819007 0)
(0.00318083 0.00113956 0)
(0.00335616 0.00113499 0)
(0.00353148 0.00113042 0)
(0.00370681 0.00112585 0)
(0.00388213 0.00112129 0)
(0.00405746 0.00111672 0)
(0.00423279 0.00111215 0)
(0.00440812 0.00110758 0)
(0.00458344 0.00110302 0)
(0.00475877 0.00109845 0)
(0.0049341 0.00109388 0)
(0.00510943 0.00108931 0)
(0.00528476 0.00108474 0)
(0.00546009 0.00108018 0)
(0.00563542 0.00107561 0)
(0.00581075 0.00107104 0)
(0.00598608 0.00106647 0)
(0.00616141 0.0010619 0)
(0.00633674 0.00105733 0)
(0.00651207 0.00105276 0)
(0.00308419 0.00137872 0)
(0.00326447 0.00137386 0)
(0.00344475 0.001369 0)
(0.00362504 0.00136413 0)
(0.00380532 0.00135927 0)
(0.00398561 0.00135441 0)
(0.00416589 0.00134955 0)
(0.00434618 0.00134468 0)
(0.00452646 0.00133982 0)
(0.00470675 0.00133496 0)
(0.00488703 0.0013301 0)
(0.00506732 0.00132523 0)
(0.00524761 0.00132037 0)
(0.0054279 0.00131551 0)
(0.00560818 0.00131064 0)
(0.00578847 0.00130578 0)
(0.00596876 0.00130092 0)
(0.00614905 0.00129605 0)
(0.00632934 0.00129118 0)
(0.00650963 0.00128632 0)
(0.00296954 0.00160958 0)
(0.00315571 0.00160485 0)
(0.00334187 0.00160011 0)
(0.00352803 0.00159538 0)
(0.0037142 0.00159065 0)
(0.00390036 0.00158592 0)
(0.00408653 0.00158118 0)
(0.0042727 0.00157645 0)
(0.00445887 0.00157172 0)
(0.00464503 0.00156699 0)
(0.0048312 0.00156226 0)
(0.00501737 0.00155753 0)
(0.00520354 0.0015528 0)
(0.00538971 0.00154806 0)
(0.00557588 0.00154333 0)
(0.00576205 0.0015386 0)
(0.00594822 0.00153386 0)
(0.00613439 0.00152913 0)
(0.00632056 0.00152439 0)
(0.00650674 0.00151966 0)
(0.0028376 0.00183074 0)
(0.00303053 0.00182663 0)
(0.00322346 0.00182253 0)
(0.0034164 0.00181842 0)
(0.00360933 0.00181432 0)
(0.00380227 0.00181021 0)
(0.0039952 0.00180611 0)
(0.00418814 0.001802 0)
(0.00438108 0.0017979 0)
(0.00457401 0.0017938 0)
(0.00476695 0.00178969 0)
(0.00495989 0.00178559 0)
(0.00515283 0.00178148 0)
(0.00534576 0.00177738 0)
(0.0055387 0.00177327 0)
(0.00573164 0.00176917 0)
(0.00592458 0.00176506 0)
(0.00611752 0.00176095 0)
(0.00631046 0.00175685 0)
(0.0065034 0.00175274 0)
(0.00268917 0.00204088 0)
(0.00288972 0.00203796 0)
(0.00309027 0.00203505 0)
(0.00329082 0.00203213 0)
(0.00349137 0.00202922 0)
(0.00369192 0.00202631 0)
(0.00389247 0.0020234 0)
(0.00409302 0.00202048 0)
(0.00429357 0.00201757 0)
(0.00449412 0.00201466 0)
(0.00469468 0.00201175 0)
(0.00489523 0.00200884 0)
(0.00509578 0.00200593 0)
(0.00529633 0.00200301 0)
(0.00549689 0.0020001 0)
(0.00569744 0.00199719 0)
(0.00589799 0.00199427 0)
(0.00609855 0.00199136 0)
(0.0062991 0.00198844 0)
(0.00649966 0.00198552 0)
(0.00252519 0.00223873 0)
(0.00273415 0.00223764 0)
(0.00294311 0.00223654 0)
(0.00315208 0.00223545 0)
(0.00336104 0.00223436 0)
(0.00357001 0.00223327 0)
(0.00377897 0.00223218 0)
(0.00398794 0.00223109 0)
(0.0041969 0.00223 0)
(0.00440586 0.00222891 0)
(0.00461483 0.00222782 0)
(0.00482379 0.00222673 0)
(0.00503276 0.00222564 0)
(0.00524172 0.00222455 0)
(0.00545069 0.00222346 0)
(0.00565966 0.00222236 0)
(0.00586862 0.00222127 0)
(0.00607759 0.00222018 0)
(0.00628655 0.00221908 0)
(0.00649552 0.00221799 0)
(0.00244 0.00244027 0)
(0.00265332 0.00244025 0)
(0.00286663 0.00244023 0)
(0.00307995 0.00244022 0)
(0.00329327 0.0024402 0)
(0.0035066 0.00244018 0)
(0.00371992 0.00244017 0)
(0.00393324 0.00244015 0)
(0.00414657 0.00244014 0)
(0.00435989 0.00244013 0)
(0.00457322 0.00244011 0)
(0.00478654 0.0024401 0)
(0.00499987 0.00244008 0)
(0.0052132 0.00244007 0)
(0.00542653 0.00244005 0)
(0.00563986 0.00244003 0)
(0.00585319 0.00244001 0)
(0.00606652 0.00244 0)
(0.00627986 0.00243998 0)
(0.00649319 0.00243995 0)
(0.00244001 0.00265361 0)
(0.00265333 0.00265359 0)
(0.00286665 0.00265357 0)
(0.00307997 0.00265355 0)
(0.00329329 0.00265354 0)
(0.00350662 0.00265352 0)
(0.00371994 0.0026535 0)
(0.00393326 0.00265349 0)
(0.00414659 0.00265347 0)
(0.00435991 0.00265346 0)
(0.00457324 0.00265344 0)
(0.00478657 0.00265342 0)
(0.00499989 0.00265341 0)
(0.00521322 0.00265339 0)
(0.00542655 0.00265337 0)
(0.00563988 0.00265335 0)
(0.00585321 0.00265334 0)
(0.00606654 0.00265331 0)
(0.00627988 0.00265329 0)
(0.00649321 0.00265327 0)
(0.00244003 0.00286694 0)
(0.00265335 0.00286693 0)
(0.00286667 0.00286691 0)
(0.00307999 0.00286689 0)
(0.00329331 0.00286687 0)
(0.00350664 0.00286685 0)
(0.00371996 0.00286684 0)
(0.00393328 0.00286682 0)
(0.00414661 0.0028668 0)
(0.00435993 0.00286679 0)
(0.00457326 0.00286677 0)
(0.00478659 0.00286675 0)
(0.00499991 0.00286673 0)
(0.00521324 0.00286672 0)
(0.00542657 0.0028667 0)
(0.0056399 0.00286668 0)
(0.00585323 0.00286666 0)
(0.00606656 0.00286663 0)
(0.0062799 0.00286661 0)
(0.00649323 0.00286659 0)
(0.00244005 0.00308028 0)
(0.00265337 0.00308026 0)
(0.00286669 0.00308024 0)
(0.00308001 0.00308022 0)
(0.00329333 0.00308021 0)
(0.00350666 0.00308019 0)
(0.00371998 0.00308017 0)
(0.0039333 0.00308015 0)
(0.00414663 0.00308013 0)
(0.00435995 0.00308012 0)
(0.00457328 0.0030801 0)
(0.00478661 0.00308008 0)
(0.00499994 0.00308006 0)
(0.00521326 0.00308004 0)
(0.00542659 0.00308002 0)
(0.00563992 0.00308 0)
(0.00585326 0.00307998 0)
(0.00606659 0.00307995 0)
(0.00627992 0.00307993 0)
(0.00649325 0.0030799 0)
(0.00244006 0.00329362 0)
(0.00265339 0.0032936 0)
(0.00286671 0.00329358 0)
(0.00308003 0.00329356 0)
(0.00329335 0.00329354 0)
(0.00350668 0.00329352 0)
(0.00372 0.0032935 0)
(0.00393333 0.00329348 0)
(0.00414665 0.00329346 0)
(0.00435998 0.00329344 0)
(0.0045733 0.00329343 0)
(0.00478663 0.00329341 0)
(0.00499996 0.00329339 0)
(0.00521329 0.00329337 0)
(0.00542662 0.00329334 0)
(0.00563995 0.00329332 0)
(0.00585328 0.0032933 0)
(0.00606661 0.00329327 0)
(0.00627994 0.00329325 0)
(0.00649327 0.00329322 0)
(0.00244008 0.00350695 0)
(0.0026534 0.00350693 0)
(0.00286673 0.00350691 0)
(0.00308005 0.00350689 0)
(0.00329337 0.00350687 0)
(0.0035067 0.00350685 0)
(0.00372002 0.00350683 0)
(0.00393335 0.00350681 0)
(0.00414667 0.00350679 0)
(0.00436 0.00350677 0)
(0.00457333 0.00350675 0)
(0.00478665 0.00350673 0)
(0.00499998 0.00350671 0)
(0.00521331 0.00350669 0)
(0.00542664 0.00350667 0)
(0.00563997 0.00350664 0)
(0.0058533 0.00350662 0)
(0.00606663 0.00350659 0)
(0.00627996 0.00350657 0)
(0.0064933 0.00350654 0)
(0.0024401 0.00372029 0)
(0.00265342 0.00372027 0)
(0.00286674 0.00372025 0)
(0.00308007 0.00372023 0)
(0.00329339 0.00372021 0)
(0.00350672 0.00372019 0)
(0.00372004 0.00372017 0)
(0.00393337 0.00372015 0)
(0.00414669 0.00372012 0)
(0.00436002 0.0037201 0)
(0.00457335 0.00372008 0)
(0.00478668 0.00372006 0)
(0.005 0.00372004 0)
(0.00521333 0.00372002 0)
(0.00542666 0.00371999 0)
(0.00563999 0.00371997 0)
(0.00585332 0.00371994 0)
(0.00606666 0.00371992 0)
(0.00627999 0.00371989 0)
(0.00649332 0.00371986 0)
(0.00244011 0.00393362 0)
(0.00265343 0.0039336 0)
(0.00286676 0.00393358 0)
(0.00308008 0.00393356 0)
(0.00329341 0.00393354 0)
(0.00350674 0.00393352 0)
(0.00372006 0.0039335 0)
(0.00393339 0.00393348 0)
(0.00414672 0.00393345 0)
(0.00436004 0.00393343 0)
(0.00457337 0.00393341 0)
(0.0047867 0.00393339 0)
(0.00500003 0.00393336 0)
(0.00521336 0.00393334 0)
(0.00542669 0.00393332 0)
(0.00564002 0.00393329 0)
(0.00585335 0.00393326 0)
(0.00606668 0.00393324 0)
(0.00628001 0.00393321 0)
(0.00649334 0.00393318 0)
(0.00244012 0.00414695 0)
(0.00265345 0.00414693 0)
(0.00286678 0.00414691 0)
(0.0030801 0.00414689 0)
(0.00329343 0.00414687 0)
(0.00350676 0.00414685 0)
(0.00372008 0.00414683 0)
(0.00393341 0.00414681 0)
(0.00414674 0.00414678 0)
(0.00436007 0.00414676 0)
(0.00457339 0.00414674 0)
(0.00478672 0.00414671 0)
(0.00500005 0.00414669 0)
(0.00521338 0.00414667 0)
(0.00542671 0.00414664 0)
(0.00564004 0.00414661 0)
(0.00585337 0.00414659 0)
(0.00606671 0.00414656 0)
(0.00628004 0.00414653 0)
(0.00649337 0.0041465 0)
(0.00244014 0.00436029 0)
(0.00265347 0.00436026 0)
(0.00286679 0.00436024 0)
(0.00308012 0.00436022 0)
(0.00329345 0.0043602 0)
(0.00350678 0.00436018 0)
(0.0037201 0.00436016 0)
(0.00393343 0.00436014 0)
(0.00414676 0.00436011 0)
(0.00436009 0.00436009 0)
(0.00457342 0.00436007 0)
(0.00478675 0.00436004 0)
(0.00500008 0.00436002 0)
(0.00521341 0.00435999 0)
(0.00542674 0.00435996 0)
(0.00564007 0.00435994 0)
(0.0058534 0.00435991 0)
(0.00606673 0.00435988 0)
(0.00628006 0.00435985 0)
(0.00649339 0.00435982 0)
(0.00244015 0.00457362 0)
(0.00265348 0.0045736 0)
(0.00286681 0.00457357 0)
(0.00308014 0.00457355 0)
(0.00329347 0.00457353 0)
(0.0035068 0.00457351 0)
(0.00372013 0.00457349 0)
(0.00393346 0.00457346 0)
(0.00414678 0.00457344 0)
(0.00436011 0.00457342 0)
(0.00457344 0.00457339 0)
(0.00478677 0.00457337 0)
(0.0050001 0.00457334 0)
(0.00521343 0.00457332 0)
(0.00542676 0.00457329 0)
(0.00564009 0.00457326 0)
(0.00585343 0.00457323 0)
(0.00606676 0.0045732 0)
(0.00628009 0.00457317 0)
(0.00649342 0.00457314 0)
(0.00244017 0.00478695 0)
(0.0026535 0.00478693 0)
(0.00286683 0.0047869 0)
(0.00308016 0.00478688 0)
(0.00329349 0.00478686 0)
(0.00350682 0.00478684 0)
(0.00372015 0.00478682 0)
(0.00393348 0.00478679 0)
(0.00414681 0.00478677 0)
(0.00436014 0.00478675 0)
(0.00457347 0.00478672 0)
(0.0047868 0.0047867 0)
(0.00500013 0.00478667 0)
(0.00521346 0.00478664 0)
(0.00542679 0.00478661 0)
(0.00564012 0.00478658 0)
(0.00585345 0.00478655 0)
(0.00606678 0.00478652 0)
(0.00628012 0.00478649 0)
(0.00649345 0.00478646 0)
(0.00244018 0.00500027 0)
(0.00265352 0.00500025 0)
(0.00286685 0.00500023 0)
(0.00308018 0.00500021 0)
(0.00329351 0.00500019 0)
(0.00350684 0.00500017 0)
(0.00372017 0.00500014 0)
(0.0039335 0.00500012 0)
(0.00414683 0.0050001 0)
(0.00436016 0.00500007 0)
(0.00457349 0.00500005 0)
(0.00478683 0.00500002 0)
(0.00500016 0.00499999 0)
(0.00521349 0.00499997 0)
(0.00542682 0.00499994 0)
(0.00564015 0.00499991 0)
(0.00585348 0.00499988 0)
(0.00606681 0.00499985 0)
(0.00628015 0.00499981 0)
(0.00649348 0.00499978 0)
(0.0024402 0.0052136 0)
(0.00265353 0.00521358 0)
(0.00286687 0.00521356 0)
(0.0030802 0.00521354 0)
(0.00329353 0.00521352 0)
(0.00350686 0.0052135 0)
(0.00372019 0.00521347 0)
(0.00393353 0.00521345 0)
(0.00414686 0.00521342 0)
(0.00436019 0.0052134 0)
(0.00457352 0.00521337 0)
(0.00478685 0.00521335 0)
(0.00500019 0.00521332 0)
(0.00521352 0.00521329 0)
(0.00542685 0.00521326 0)
(0.00564018 0.00521323 0)
(0.00585351 0.0052132 0)
(0.00606684 0.00521317 0)
(0.00628018 0.00521313 0)
(0.00649351 0.0052131 0)
(0.00244022 0.00542693 0)
(0.00265355 0.00542691 0)
(0.00286688 0.00542689 0)
(0.00308022 0.00542687 0)
(0.00329355 0.00542685 0)
(0.00350689 0.00542682 0)
(0.00372022 0.0054268 0)
(0.00393355 0.00542678 0)
(0.00414688 0.00542675 0)
(0.00436022 0.00542673 0)
(0.00457355 0.0054267 0)
(0.00478688 0.00542667 0)
(0.00500021 0.00542665 0)
(0.00521355 0.00542662 0)
(0.00542688 0.00542659 0)
(0.00564021 0.00542656 0)
(0.00585354 0.00542653 0)
(0.00606688 0.00542649 0)
(0.00628021 0.00542646 0)
(0.00649354 0.00542642 0)
(0.00244023 0.00564026 0)
(0.00265357 0.00564024 0)
(0.00286691 0.00564022 0)
(0.00308024 0.00564019 0)
(0.00329358 0.00564017 0)
(0.00350691 0.00564015 0)
(0.00372024 0.00564013 0)
(0.00393358 0.0056401 0)
(0.00414691 0.00564008 0)
(0.00436024 0.00564005 0)
(0.00457358 0.00564003 0)
(0.00478691 0.00564 0)
(0.00500024 0.00563997 0)
(0.00521358 0.00563994 0)
(0.00542691 0.00563991 0)
(0.00564024 0.00563988 0)
(0.00585358 0.00563985 0)
(0.00606691 0.00563982 0)
(0.00628024 0.00563978 0)
(0.00649357 0.00563974 0)
(0.00244025 0.00585358 0)
(0.00265359 0.00585356 0)
(0.00286693 0.00585354 0)
(0.00308026 0.00585352 0)
(0.0032936 0.0058535 0)
(0.00350693 0.00585348 0)
(0.00372027 0.00585345 0)
(0.0039336 0.00585343 0)
(0.00414694 0.0058534 0)
(0.00436027 0.00585338 0)
(0.00457361 0.00585335 0)
(0.00478694 0.00585333 0)
(0.00500028 0.0058533 0)
(0.00521361 0.00585327 0)
(0.00542694 0.00585324 0)
(0.00564028 0.0058532 0)
(0.00585361 0.00585317 0)
(0.00606694 0.00585314 0)
(0.00628028 0.0058531 0)
(0.00649361 0.00585307 0)
(0.00244027 0.00606691 0)
(0.00265361 0.00606689 0)
(0.00286695 0.00606687 0)
(0.00308029 0.00606684 0)
(0.00329362 0.00606682 0)
(0.00350696 0.0060668 0)
(0.0037203 0.00606678 0)
(0.00393363 0.00606675 0)
(0.00414697 0.00606673 0)
(0.0043603 0.0060667 0)
(0.00457364 0.00606668 0)
(0.00478697 0.00606665 0)
(0.00500031 0.00606662 0)
(0.00521364 0.00606659 0)
(0.00542698 0.00606656 0)
(0.00564031 0.00606653 0)
(0.00585364 0.00606649 0)
(0.00606698 0.00606646 0)
(0.00628031 0.00606643 0)
(0.00649365 0.00606639 0)
(0.00244029 0.00628023 0)
(0.00265363 0.00628021 0)
(0.00286697 0.00628019 0)
(0.00308031 0.00628017 0)
(0.00329365 0.00628015 0)
(0.00350699 0.00628012 0)
(0.00372032 0.0062801 0)
(0.00393366 0.00628008 0)
(0.004147 0.00628005 0)
(0.00436033 0.00628003 0)
(0.00457367 0.00628 0)
(0.00478701 0.00627998 0)
(0.00500034 0.00627995 0)
(0.00521368 0.00627992 0)
(0.00542701 0.00627989 0)
(0.00564035 0.00627985 0)
(0.00585368 0.00627982 0)
(0.00606701 0.00627978 0)
(0.00628035 0.00627975 0)
(0.00649368 0.00627972 0)
(0.00244031 0.00649355 0)
(0.00265365 0.00649353 0)
(0.00286699 0.00649351 0)
(0.00308033 0.00649349 0)
(0.00329367 0.00649347 0)
(0.00350701 0.00649345 0)
(0.00372035 0.00649343 0)
(0.00393369 0.0064934 0)
(0.00414703 0.00649338 0)
(0.00436036 0.00649335 0)
(0.0045737 0.00649333 0)
(0.00478704 0.0064933 0)
(0.00500037 0.00649327 0)
(0.00521371 0.00649324 0)
(0.00542705 0.00649321 0)
(0.00564038 0.00649318 0)
(0.00585371 0.00649314 0)
(0.00606705 0.0064931 0)
(0.00628037 0.00649307 0)
(0.0064937 0.00649305 0)
(0.000129197 0.00337784 0)
(0.000386812 0.00335801 0)
(0.000642092 0.00331848 0)
(0.000893497 0.0032595 0)
(0.00113951 0.00318142 0)
(0.00137865 0.00308472 0)
(0.00160947 0.00297002 0)
(0.0018306 0.00283802 0)
(0.00204069 0.00268954 0)
(0.0022385 0.0025255 0)
(0.000128559 0.00354309 0)
(0.000384936 0.00352428 0)
(0.000639098 0.00348678 0)
(0.000889583 0.00343082 0)
(0.00113495 0.00335675 0)
(0.0013738 0.00326502 0)
(0.00160476 0.0031562 0)
(0.00182651 0.00303097 0)
(0.0020378 0.00289011 0)
(0.00223743 0.00273448 0)
(0.00012792 0.00370835 0)
(0.00038306 0.00369055 0)
(0.000636104 0.00365508 0)
(0.00088567 0.00360215 0)
(0.0011304 0.00353208 0)
(0.00136895 0.00344531 0)
(0.00160005 0.00334238 0)
(0.00182243 0.00322392 0)
(0.00203492 0.00309068 0)
(0.00223637 0.00294347 0)
(0.000127281 0.0038736 0)
(0.000381183 0.00385682 0)
(0.00063311 0.00382338 0)
(0.000881755 0.00377347 0)
(0.00112584 0.00370741 0)
(0.0013641 0.0036256 0)
(0.00159533 0.00352855 0)
(0.00181835 0.00341687 0)
(0.00203203 0.00329124 0)
(0.00223531 0.00315245 0)
(0.000126642 0.00403885 0)
(0.000379307 0.00402309 0)
(0.000630115 0.00399168 0)
(0.000877841 0.00394479 0)
(0.00112128 0.00388273 0)
(0.00135925 0.00380589 0)
(0.00159062 0.00371472 0)
(0.00181426 0.00360981 0)
(0.00202914 0.0034918 0)
(0.00223425 0.00336143 0)
(0.000126004 0.00420411 0)
(0.000377431 0.00418937 0)
(0.00062712 0.00415997 0)
(0.000873927 0.00411612 0)
(0.00111672 0.00405806 0)
(0.0013544 0.00398617 0)
(0.0015859 0.0039009 0)
(0.00181018 0.00380276 0)
(0.00202625 0.00369237 0)
(0.00223319 0.00357041 0)
(0.000125365 0.00436936 0)
(0.000375554 0.00435564 0)
(0.000624126 0.00432827 0)
(0.000870013 0.00428744 0)
(0.00111216 0.00423339 0)
(0.00134955 0.00416646 0)
(0.00158118 0.00408707 0)
(0.00180609 0.0039957 0)
(0.00202336 0.00389293 0)
(0.00223212 0.00377938 0)
(0.000124726 0.00453461 0)
(0.000373678 0.00452191 0)
(0.000621131 0.00449657 0)
(0.000866098 0.00445876 0)
(0.00110761 0.00440872 0)
(0.0013447 0.00434675 0)
(0.00157647 0.00427324 0)
(0.00180201 0.00418864 0)
(0.00202047 0.00409348 0)
(0.00223106 0.00398836 0)
(0.000124087 0.00469987 0)
(0.000371801 0.00468818 0)
(0.000618137 0.00466487 0)
(0.000862184 0.00463009 0)
(0.00110305 0.00458405 0)
(0.00133985 0.00452704 0)
(0.00157175 0.00445941 0)
(0.00179792 0.00438158 0)
(0.00201758 0.00429404 0)
(0.00223 0.00419733 0)
(0.000123449 0.00486512 0)
(0.000369925 0.00485445 0)
(0.000615142 0.00483316 0)
(0.00085827 0.00480141 0)
(0.00109849 0.00475937 0)
(0.001335 0.00470732 0)
(0.00156704 0.00464558 0)
(0.00179384 0.00457452 0)
(0.0020147 0.0044946 0)
(0.00222893 0.0044063 0)
(0.00012281 0.00503037 0)
(0.000368049 0.00502072 0)
(0.000612148 0.00500146 0)
(0.000854356 0.00497273 0)
(0.00109393 0.0049347 0)
(0.00133015 0.00488761 0)
(0.00156232 0.00483175 0)
(0.00178975 0.00476746 0)
(0.00201181 0.00469515 0)
(0.00222787 0.00461527 0)
(0.000122171 0.00519562 0)
(0.000366173 0.00518698 0)
(0.000609154 0.00516976 0)
(0.000850442 0.00514405 0)
(0.00108937 0.00511003 0)
(0.0013253 0.00506789 0)
(0.0015576 0.00501792 0)
(0.00178567 0.0049604 0)
(0.00200892 0.00489571 0)
(0.0022268 0.00482423 0)
(0.000121532 0.00536088 0)
(0.000364296 0.00535325 0)
(0.00060616 0.00533806 0)
(0.000846528 0.00531537 0)
(0.00108482 0.00528535 0)
(0.00132046 0.00524818 0)
(0.00155289 0.00520408 0)
(0.00178158 0.00515334 0)
(0.00200603 0.00509626 0)
(0.00222574 0.0050332 0)
(0.000120894 0.00552613 0)
(0.00036242 0.00551952 0)
(0.000603166 0.00550635 0)
(0.000842615 0.0054867 0)
(0.00108026 0.00546068 0)
(0.00131561 0.00542846 0)
(0.00154817 0.00539025 0)
(0.0017775 0.00534627 0)
(0.00200314 0.00529681 0)
(0.00222468 0.00524216 0)
(0.000120255 0.00569138 0)
(0.000360545 0.00568579 0)
(0.000600172 0.00567465 0)
(0.000838702 0.00565802 0)
(0.0010757 0.00563601 0)
(0.00131076 0.00560875 0)
(0.00154346 0.00557642 0)
(0.00177342 0.00553921 0)
(0.00200025 0.00549736 0)
(0.00222362 0.00545113 0)
(0.000119617 0.00585663 0)
(0.000358669 0.00585206 0)
(0.000597179 0.00584294 0)
(0.000834789 0.00582934 0)
(0.00107115 0.00581133 0)
(0.00130591 0.00578903 0)
(0.00153875 0.00576258 0)
(0.00176933 0.00573215 0)
(0.00199737 0.00569791 0)
(0.00222255 0.00566009 0)
(0.000118978 0.00602188 0)
(0.000356793 0.00601833 0)
(0.000594186 0.00601124 0)
(0.000830876 0.00600066 0)
(0.00106659 0.00598666 0)
(0.00130106 0.00596932 0)
(0.00153403 0.00594875 0)
(0.00176525 0.00592508 0)
(0.00199448 0.00589846 0)
(0.00222149 0.00586905 0)
(0.00011834 0.00618713 0)
(0.000354918 0.0061846 0)
(0.000591193 0.00617953 0)
(0.000826964 0.00617198 0)
(0.00106204 0.00616198 0)
(0.00129622 0.0061496 0)
(0.00152932 0.00613491 0)
(0.00176117 0.00611801 0)
(0.0019916 0.006099 0)
(0.00222044 0.00607801 0)
(0.000117701 0.00635238 0)
(0.000353042 0.00635086 0)
(0.0005882 0.00634783 0)
(0.000823052 0.0063433 0)
(0.00105748 0.0063373 0)
(0.00129137 0.00632988 0)
(0.00152461 0.00632108 0)
(0.00175709 0.00631094 0)
(0.00198871 0.00629955 0)
(0.00221938 0.00628696 0)
(0.000117063 0.00651763 0)
(0.000351167 0.00651713 0)
(0.000585207 0.00651612 0)
(0.000819141 0.00651462 0)
(0.00105293 0.00651263 0)
(0.00128652 0.00651016 0)
(0.0015199 0.00650724 0)
(0.00175301 0.00650388 0)
(0.00198583 0.0065001 0)
(0.00221832 0.00649592 0)
)
;

boundaryField
{
    left
    {
        type            symmetryPlane;
    }
    right
    {
        type            tractionDisplacement;
        traction        uniform (10000 0 0);
        pressure        
        {
            type            uniform;
            value           0;
        }
        value           nonuniform List<vector> 
30
(
(0.00659974 0.000117044 2.44385e-21)
(0.00659975 0.000351108 -1.62386e-21)
(0.00659975 0.000585109 -9.12344e-25)
(0.00659976 0.000819004 2.44454e-21)
(0.00659976 0.00105275 -2.43089e-21)
(0.00659978 0.00128631 -9.98204e-24)
(0.00659979 0.00151965 -7.45939e-24)
(0.0065998 0.00175273 -2.58819e-23)
(0.00659982 0.00198552 1.62294e-21)
(0.00659984 0.00221798 2.66184e-23)
(0.00659986 0.00243994 -7.23464e-24)
(0.00659988 0.00265326 5.08486e-36)
(0.0065999 0.00286658 -7.43083e-26)
(0.00659992 0.00307989 -7.66616e-26)
(0.00659994 0.00329321 1.57249e-25)
(0.00659996 0.00350653 2.54285e-36)
(0.00659999 0.00371985 5.08402e-36)
(0.00660001 0.00393317 8.46398e-26)
(0.00660004 0.00414649 -8.71213e-26)
(0.00660006 0.00435981 2.54231e-36)
(0.00660009 0.00457313 -6.42833e-40)
(0.00660011 0.00478644 -6.71132e-40)
(0.00660014 0.00499976 0)
(0.00660017 0.00521308 2.54228e-36)
(0.00660021 0.0054264 5.08618e-36)
(0.00660024 0.00563972 2.54312e-36)
(0.00660028 0.00585305 8.81611e-40)
(0.00660031 0.00606638 -2.67911e-41)
(0.00660035 0.00627971 8.97932e-26)
(0.00660037 0.00649305 0)
)
;
    }
    down
    {
        type            symmetryPlane;
    }
    up
    {
        type            tractionDisplacement;
        traction        uniform (0 0 0);
        pressure        
        {
            type            uniform;
            value           0;
        }
        value           nonuniform List<vector> 
30
(
(0.000117063 0.00660033 2.44458e-21)
(0.000351168 0.00660033 -2.44001e-21)
(0.000585209 0.00660033 2.43707e-21)
(0.000819144 0.00660032 8.15745e-22)
(0.00105293 0.00660031 -8.06999e-22)
(0.00128653 0.0066003 -8.15646e-22)
(0.0015199 0.00660029 1.14725e-24)
(0.00175302 0.00660027 -8.07714e-22)
(0.00198584 0.00660025 1.22354e-23)
(0.00221833 0.00660023 -1.59001e-21)
(0.00244032 0.00660021 -7.47403e-22)
(0.00265366 0.0066002 -6.8194e-26)
(0.002867 0.00660018 -7.09819e-26)
(0.00308034 0.00660015 0)
(0.00329368 0.00660013 7.62153e-26)
(0.00350702 0.00660011 7.85864e-26)
(0.00372036 0.00660009 -8.08586e-26)
(0.0039337 0.00660006 -8.31432e-26)
(0.00414704 0.00660004 8.55849e-26)
(0.00436038 0.00660002 2.54099e-36)
(0.00457371 0.00659999 6.30665e-40)
(0.00478705 0.00659996 2.54217e-36)
(0.00500039 0.00659993 5.08439e-36)
(0.00521373 0.0065999 5.08513e-36)
(0.00542706 0.00659987 5.0844e-36)
(0.0056404 0.00659984 5.08524e-36)
(0.00585373 0.0065998 -1.25858e-25)
(0.00606706 0.00659977 0)
(0.00628039 0.00659974 0)
(0.00649371 0.00659972 0)
)
;
    }
    hole
    {
        type            tractionDisplacement;
        traction        uniform (0 0 0);
        pressure        
        {
            type            uniform;
            value           0;
        }
        value           nonuniform List<vector> 
20
(
(0.00111894 0.00121096 8.79313e-22)
(0.00102052 0.00129506 5.56523e-23)
(0.000915805 0.00137117 0)
(0.000805447 0.00143883 -2.6108e-22)
(0.000690123 0.00149762 -4.67217e-22)