/*--------------------------------*- C++ -*----------------------------------*\
  =========                 |
  \\      /  F ield         | OpenFOAM: The Open Source CFD Toolbox
   \\    /   O peration     | Website:  https://openfoam.org
    \\  /    A nd           | Version:  dev
     \\/     M anipulation  |
\*---------------------------------------------------------------------------*/
FoamFile
{
    version     2.0;
    format      ascii;
    class       volScalarField;
    location    "80";
    object      sigmayz;
}
// * * * * * * * * * * * * * * * * * * * * * * * * * * * * * * * * * * * * * //

dimensions      [1 -1 -2 0 0 0 0];

internalField   nonuniform List<scalar> 
1000
(
6.88895e-10
4.67766e-09
-6.41713e-09
-2.79046e-09
1.09671e-08
3.25103e-09
5.55924e-09
-6.19282e-09
-3.82456e-09
0
2.68991e-09
0
-2.33216e-09
4.31911e-09
1.81987e-09
1.56191e-09
-1.74413e-09
-7.74021e-09
0
0
0
0
-1.8764e-09
3.18512e-09
4.88796e-11
-1.97866e-09
-5.47485e-09
1.32638e-09
4.18243e-09
2.63702e-09
1.41155e-09
-2.85943e-09
7.29935e-10
3.1816e-09
1.96603e-09
1.35265e-09
1.39621e-09
3.10266e-09
-3.83788e-09
1.62001e-09
4.40851e-10
8.35814e-11
2.36191e-09
-1.65582e-09
3.73023e-09
2.70566e-09
2.31043e-09
-3.21627e-09
-1.11206e-08
6.81569e-10
1.35056e-09
8.63486e-11
-8.63826e-11
-1.71062e-09
9.56866e-10
-2.13317e-10
-1.04133e-09
5.06333e-11
-4.61512e-10
-1.6083e-09
-1.96296e-09
-2.8887e-09
-5.07833e-10
1.93216e-09
3.28708e-09
-3.32462e-09
-8.79477e-09
5.82591e-10
4.7497e-09
3.00331e-09
-1.33639e-09
6.10642e-10
-1.38237e-10
-3.75728e-09
2.7638e-09
3.93861e-09
1.80778e-10
3.03717e-09
-2.37337e-09
-2.66113e-09
6.06325e-10
2.05516e-09
-3.29818e-09
-5.61507e-09
4.26213e-09
3.76063e-09
-4.44576e-09
-6.0269e-10
-1.89831e-10
8.10056e-09
1.88506e-09
2.90718e-09
-3.50834e-09
-3.82797e-09
1.84111e-10
3.96962e-09
-4.65752e-09
-1.7062e-11
5.0264e-09
2.76553e-09
4.36378e-09
1.17795e-10
1.72355e-09
0
-1.61246e-10
2.89423e-09
1.75745e-10
2.65413e-09
-1.11078e-09
-3.44253e-09
4.30982e-09
-1.74546e-09
1.58087e-09
-2.14277e-10
0
2.887e-09
5.47816e-10
2.00414e-12
-1.21528e-09
-1.49515e-09
2.08844e-09
-1.60759e-09
-1.7636e-09
-3.55662e-10
0
2.81594e-09
3.96805e-09
-2.05192e-09
6.00083e-13
1.75616e-09
-4.2213e-09
-4.19709e-10
-1.74565e-09
0
4.05894e-09
1.79669e-09
-1.20318e-09
-1.93533e-09
-1.17976e-09
-2.1895e-09
4.13375e-09
2.87311e-09
1.65863e-09
1.32575e-09
2.03454e-11
-4.20788e-09
-1.36764e-09
0
-6.83835e-10
-1.02249e-09
5.46158e-09
-1.23062e-09
9.14781e-10
-7.63259e-10
-2.86002e-09
4.41585e-09
1.2258e-11
1.32924e-09
1.28822e-12
2.57283e-09
-5.3635e-10
-2.98703e-11
-4.4982e-11
1.94414e-09
2.00689e-09
2.49041e-09
-4.65386e-09
8.33406e-12
-2.26495e-09
1.70096e-09
-5.79769e-09
-1.63314e-09
9.87145e-10
-9.70208e-10
1.02357e-10
-4.88112e-09
-2.50332e-09
2.52892e-09
1.4485e-09
5.42848e-10
-4.50427e-09
1.35043e-09
-5.69952e-11
-3.81868e-09
-2.35413e-09
-2.34309e-09
3.01778e-09
2.93667e-09
-4.95945e-09
-9.31318e-10
8.01529e-11
1.1122e-09
1.20709e-09
-8.54022e-09
-3.99025e-11
1.92293e-09
6.64984e-09
6.62553e-10
-5.12587e-09
4.47886e-09
-1.14902e-09
-2.26727e-09
-1.10781e-09
1.05221e-11
3.45422e-09
0
0
-1.0273e-11
-1.17561e-09
-2.02987e-11
-3.56359e-09
1.1941e-09
-3.60068e-09
2.99759e-11
1.20275e-09
-3.54044e-14
9.83493e-12
-9.74716e-12
-3.69419e-09
2.53013e-09
-8.53504e-10
-2.25721e-09
-1.10412e-09
-2.39554e-09
1.12357e-09
1.25661e-09
-2.34581e-09
0
-1.17305e-09
-2.38627e-09
-5.98709e-09
-1.36966e-11
-2.35606e-09
-2.88482e-11
-4.15114e-11
2.85533e-11
2.85083e-11
5.65264e-11
2.90123e-11
3.65491e-09
-4.80797e-11
-1.14388e-09
1.42779e-10
1.1513e-09
-2.44362e-09
1.29884e-09
8.92971e-11
-9.28135e-11
-2.3153e-09
1.36981e-10
-4.55597e-11
-1.13472e-10
-2.25427e-11
4.49693e-11
-2.34033e-11
-1.54251e-13
4.43162e-11
1.2198e-09
6.25239e-09
-1.40293e-11
0
-1.12822e-09
-5.98054e-11
-1.34853e-10
0
-1.13709e-09
2.41317e-09
1.16065e-10
1.28942e-09
2.29429e-09
2.37005e-09
-2.53957e-09
-3.6972e-09
1.21287e-09
1.19002e-09
5.57867e-11
1.74824e-13
1.10152e-09
-1.28602e-09
2.89549e-09
2.01231e-09
1.15494e-09
1.30346e-09
-1.15742e-09
-3.73621e-09
1.00803e-10
0
-6.41436e-11
3.64809e-09
1.33139e-09
-2.43123e-09
-1.04048e-09
3.78768e-09
1.07957e-09
-1.31375e-09
-1.25821e-09
-2.65004e-09
-1.32926e-09
-2.70109e-09
9.49959e-10
4.98281e-10
-3.04987e-11
1.21238e-09
2.52456e-09
-1.1647e-09
-1.73763e-10
6.49591e-11
1.20986e-09
-3.93436e-09
1.40799e-10
1.63592e-10
2.24877e-09
6.40145e-09
1.87093e-10
-1.25089e-09
2.90082e-09
8.39173e-11
-1.52056e-09
1.27917e-09
-2.69022e-09
-5.79217e-10
-2.72362e-11
-1.18753e-09
6.04399e-11
2.38626e-09
-1.21427e-09
-2.63131e-09
3.98686e-09
2.88662e-09
-4.10227e-09
2.61356e-09
-1.70041e-10
-2.8459e-09
-1.23617e-09
4.13101e-09
-1.58993e-10
2.91964e-09
-5.60049e-11
-1.48213e-09
-1.42334e-09
-3.09479e-11
1.31291e-11
-1.10106e-09
0
0
1.38235e-09
-2.2223e-11
-1.70368e-09
-9.27687e-11
1.66907e-09
-9.15558e-11
1.3925e-09
-4.22615e-09
-4.4247e-09
-1.93788e-10
-7.101e-09
0
2.97507e-09
-1.43808e-09
-4.39555e-09
3.11253e-11
-1.11188e-09
1.19094e-09
1.23255e-09
-2.57755e-09
-2.68566e-09
2.60319e-09
-2.50665e-09
3.33135e-10
2.6152e-09
4.43381e-09
-7.82016e-11
-1.3557e-09
1.52816e-10
-2.87615e-09
1.39832e-10
1.44062e-09
1.43816e-09
1.66818e-09
1.75762e-09
3.94837e-10
1.51549e-09
-4.10073e-10
-3.46536e-10
7.47794e-10
9.89104e-10
1.59767e-09
-3.25833e-10
1.96417e-09
2.57103e-10
-7.19803e-10
2.54972e-10
0
4.77911e-09
-1.94205e-10
4.85969e-09
-1.97732e-10
-3.32185e-09
-1.9289e-10
2.91849e-09
8.66845e-11
1.68479e-09
6.8042e-11
-1.70105e-09
5.17555e-09
3.37357e-09
1.71502e-09
-1.71649e-09
-5.15063e-09
-4.5843e-11
-3.37718e-09
-5.27274e-11
0
1.69602e-09
-1.68761e-09
-8.35065e-11
-1.66666e-09
1.06803e-10
1.2025e-10
1.34758e-10
-6.72527e-10
0
1.45811e-13
-6.05284e-24
-1.21247e-23
-2.34685e-23
-1.21025e-23
1.29928e-13
0
-1.29415e-13
-6.84315e-24
1.33395e-13
-1.3713e-13
-1.21012e-23
1.4849e-13
1.96622e-25
-1.64281e-13
-1.74211e-13
-6.4518e-24
-6.45182e-24
1.76134e-09
1.76149e-09
1.76164e-09
0
1.76133e-09
3.52279e-09
1.7616e-09
3.52304e-09
-1.39183e-13
3.52286e-09
1.76142e-09
3.52282e-09
3.5228e-09
1.76139e-09
3.52276e-09
3.52274e-09
1.75089e-13
1.76135e-09
1.76134e-09
1.76133e-09
-2.39809e-09
-1.76149e-09
1.76179e-09
-1.81564e-23
1.76117e-09
0
-1.76146e-09
2.96885e-13
-2.42073e-23
-2.99103e-13
1.76142e-09
-5.85607e-25
6.53589e-27
-1.76139e-09
3.5118e-27
3.55409e-13
-1.21025e-23
1.76096e-09
1.76134e-09
1.76133e-09
-3.52297e-09
-1.76164e-09
-3.52295e-09
6.04933e-24
-3.52309e-09
-1.7613e-09
-1.7613e-09
-3.52289e-09
-1.57221e-13
-1.76159e-09
-3.52284e-09
-1.76125e-09
-3.52264e-09
-1.76139e-09
-3.52295e-09
-1.76137e-09
-4.33472e-29
-3.52291e-09
-3.52269e-09
-3.52267e-09
2.28623e-09
1.76147e-09
1.64144e-13
0
-1.63335e-13
-1.76162e-09
1.76161e-09
1.64006e-13
-1.65161e-13
-1.76143e-09
-2.38585e-23
-1.76141e-09
0
1.76139e-09
0
-1.76137e-09
2.04576e-13
-1.21248e-23
-1.2124e-23
-1.21233e-23
-4.8724e-10
-1.76147e-09
1.6714e-13
-1.8154e-23
-1.77943e-23
-1.76145e-09
-1.76145e-09
1.70712e-13
0
-1.7616e-09
1.21288e-23
-1.76123e-09
-1.86532e-13
-1.76139e-09
1.99479e-13
-1.76138e-09
-2.13649e-13
-2.205e-13
1.2124e-23
1.21254e-23
-1.76146e-09
-1.76146e-09
-1.76146e-09
0
-1.76145e-09
0
-1.76144e-09
0
0
0
-1.76142e-09
0
0
-1.76139e-09
0
0
0
-1.76136e-09
-1.76135e-09
-1.76135e-09
2.17301e-09
0
1.76145e-09
0
1.76144e-09
1.76144e-09
0
0
0
1.76142e-09
1.76142e-09
1.76141e-09
0
0
0
1.76138e-09
0
1.76136e-09
1.76135e-09
1.76135e-09
7.47652e-10
1.76144e-09
5.67067e-24
1.20994e-23
-1.78467e-13
1.76162e-09
1.76162e-09
0
-1.89637e-13
1.76123e-09
-1.21238e-23
1.76161e-09
2.08386e-13
1.7614e-09
-2.23273e-13
1.76138e-09
-1.21002e-23
-2.45732e-13
-1.23196e-23
-3.90322e-25
-1.64739e-13
-2.42481e-23
1.733e-13
0
-1.8071e-13
-1.8395e-13
1.87101e-13
1.90369e-13
-1.93938e-13
2.42035e-23
2.38579e-23
1.20989e-23
-1.21003e-23
-2.46444e-23
-1.20986e-23
6.04844e-24
2.4645e-13
1.21242e-23
1.21259e-23
1.2124e-23
5.97407e-10
1.81875e-23
1.21246e-23
-1.26707e-27
-1.82411e-13
1.86168e-13
1.89799e-13
0
-1.9753e-13
-2.01982e-13
1.19289e-23
2.12768e-13
2.19347e-13
-1.55906e-27
-2.35642e-13
5.43514e-29
-5.62751e-29
-2.62374e-13
1.2126e-23
1.21241e-23
2.61333e-10
1.76142e-09
1.74037e-13
0
-1.83608e-13
-1.76161e-09
1.76161e-09
3.52303e-09
-2.00429e-13
-1.76141e-09
-2.42488e-23
-1.7614e-09
3.5228e-09
1.76139e-09
3.52278e-09
-1.76138e-09
2.5966e-13
0
1.91253e-27
0
-2.24775e-10
-1.76141e-09
1.74007e-13
1.20992e-23
5.86581e-24
-1.76141e-09
-1.7618e-09
1.9782e-13
4.05283e-13
-1.76161e-09
3.63733e-23
-1.76162e-09
-2.27997e-13
-1.76139e-09
2.45247e-13
-1.76088e-09
-2.64468e-13
-2.76724e-13
-9.92044e-28
9.30106e-28
5.53683e-28
-1.76141e-09
-2.44444e-23
0
2.40533e-23
1.76141e-09
-1.76141e-09
-3.52281e-09
0
1.7614e-09
-1.21214e-23
1.7614e-09
-3.52279e-09
-1.76139e-09
-3.52278e-09
1.76138e-09
0
-2.4444e-23
-2.44481e-23
-2.44419e-23
1.60317e-13
-5.74501e-28
1.83816e-23
1.20991e-23
-1.84526e-13
1.89593e-13
1.94521e-13
0
-2.05029e-13
-2.11156e-13
1.21266e-23
2.26247e-13
2.35272e-13
0
-2.54465e-13
-1.21233e-23
2.42002e-23
-2.82438e-13
1.23177e-23
-1.19276e-23
-1.76139e-09
0
-1.25158e-23
0
3.91425e-25
-1.21231e-23
0
0
0
1.21251e-23
-1.17325e-23
1.21244e-23
0
0
0
1.21243e-23
0
-1.25201e-23
-1.21242e-23
-1.21244e-23
1.6712e-10
1.76122e-09
1.95325e-25
6.05009e-24
-1.8332e-13
1.76158e-09
1.76159e-09
0
-2.04922e-13
1.76118e-09
1.1928e-23
1.76162e-09
2.39893e-13
1.76139e-09
-2.65832e-13
1.76138e-09
-1.20982e-23
-2.77436e-13
2.48351e-23
3.91113e-25
1.76122e-09
1.76138e-09
-1.76121e-09
0
-1.76157e-09
-1.8785e-13
1.76158e-09
1.98484e-13
-2.04242e-13
4.30662e-27
-1.76139e-09
5.06773e-29
1.21002e-23
1.76139e-09
1.21002e-23
6.04815e-24
2.91049e-13
-1.76137e-09
-1.76137e-09
-1.76144e-09
5.9293e-10
5.39416e-14
5.61465e-14
0
-6.02856e-14
-6.21608e-14
6.39576e-14
6.57641e-14
-6.76949e-14
-2.01575e-24
-4.98828e-28
-2.01668e-24
-4.0334e-24
-4.03399e-24
-4.03341e-24
-4.03407e-24
9.95317e-14
0
0
0
-5.63332e-09
-4.96173e-09
-2.51079e-09
1.91439e-10
2.47585e-09
5.03157e-09
-4.65859e-09
1.01306e-09
7.59894e-10
0
-2.76426e-09
-8.54034e-09
-5.69607e-09
-8.24938e-09
2.68375e-09
-9.82172e-10
6.86953e-09
-3.60372e-09
2.20947e-09
-6.04865e-10
5.46378e-09
5.74837e-09
2.96121e-09
-1.02595e-09
-3.09954e-09
7.79964e-10
6.31665e-10
-2.85753e-09
1.84617e-10
-3.32402e-09
-7.92247e-44
2.53637e-09
8.06965e-09
8.04666e-09
-2.95049e-09
1.13138e-09
-8.08373e-09
-1.49521e-09
2.58609e-10
-6.60388e-10
-7.17967e-11
-5.41196e-09
0
2.89567e-09
2.97727e-10
-2.44516e-09
4.71176e-09
6.06376e-09
2.29968e-09
6.91914e-09
1.35692e-10
-2.96715e-09
-3.03093e-09
2.85908e-10
2.77519e-09
-4.81701e-09
-5.52644e-10
1.69772e-09
-6.32218e-09
5.2482e-10
-6.87453e-44
7.96096e-09
-2.8154e-09
-1.95508e-10
1.05467e-09
1.2998e-10
9.27659e-10
-8.3565e-10
-5.98226e-09
-3.8975e-09
2.59404e-09
2.70416e-09
-6.43254e-11
-2.46637e-09
5.16013e-09
4.37987e-09
1.11067e-10
1.63411e-09
1.01103e-08
6.08207e-10
-5.27073e-09
-7.74602e-09
1.11791e-10
-7.15041e-10
-4.64708e-09
3.25865e-09
-7.27036e-09
4.96048e-09
1.05916e-08
7.51646e-09
-7.9063e-09
-8.0528e-09
2.20101e-09
5.02715e-10
-1.24255e-08
-4.47013e-09
-1.11204e-09
-4.19938e-09
-6.12193e-09
-1.1574e-09
1.30625e-08
7.49234e-09
2.4236e-09
-1.96584e-09
5.23613e-09
-7.67969e-09
-6.01793e-10
-6.45645e-09
-6.13703e-09
-5.04644e-11
5.328e-09
7.84815e-09
1.30638e-10
1.30213e-10
7.71048e-09
4.57717e-10
1.50953e-09
1.43754e-09
5.44068e-10
1.09038e-09
-7.82037e-09
-2.60276e-09
-2.40971e-09
-4.28517e-11
2.86423e-09
4.47729e-09
5.93489e-09
1.05634e-11
1.06467e-11
-5.48217e-09
-4.14402e-44
-2.56091e-09
-2.52259e-09
-1.38942e-10
-2.3479e-09
-2.57034e-11
-2.1662e-09
2.60078e-10
4.01743e-09
-2.14418e-09
-3.7189e-44
0
7.50304e-09
0
5.05332e-09
-4.6853e-09
-2.82236e-09
1.3453e-09
4.33808e-10
2.86874e-09
2.54397e-09
-1.41215e-10
-4.87801e-09
-7.76453e-11
3.55894e-10
4.90074e-09
-4.90802e-09
-2.07648e-09
-6.08881e-09
-2.60163e-10
2.74446e-11
9.22549e-11
-7.51141e-09
7.16577e-09
-7.10544e-09
4.8258e-09
-5.66898e-11
-2.40754e-09
2.01838e-09
1.92394e-09
-9.12014e-12
-4.99859e-09
1.22219e-08
2.48093e-09
1.65619e-10
0
4.40835e-09
-1.22714e-10
-2.68508e-10
2.40349e-11
-4.97286e-09
2.41255e-09
-8.47289e-12
-7.15338e-09
2.38194e-09
2.27961e-09
0
2.12059e-09
-2.03003e-09
1.53906e-11
-2.50869e-09
2.48801e-09
-2.45385e-09
-8.0634e-10
7.78933e-10
7.65104e-10
-1.0415e-12
7.07126e-10
-1.02987e-11
1.28361e-09
)
;

boundaryField
{
    left
    {
        type            symmetryPlane;
    }
    right
    {
        type            calculated;
        value           nonuniform List<scalar> 
30
(
2.53013e-09
3.65491e-09
-1.40293e-11
2.89549e-09
9.49959e-10
-2.69022e-09
-1.42334e-09
-4.39555e-09
1.75762e-09
2.91849e-09
1.34758e-10
-6.45182e-24
1.76133e-09
1.76133e-09
-3.52267e-09
-1.21233e-23
1.21254e-23
-1.76135e-09
1.76135e-09
-3.90322e-25
1.2124e-23
1.21241e-23
0
9.30106e-28
-2.44419e-23
-1.19276e-23
-1.21244e-23
3.91113e-25
-1.76144e-09
0
)
;
    }
    down
    {
        type            symmetryPlane;
    }
    up
    {
        type            calculated;
        value           nonuniform List<scalar> 
30
(
-2.8032e-16
3.24425e-16
-3.13221e-16
-4.70179e-17
1.41979e-16
9.59019e-18
1.98852e-18
6.59771e-17
1.16488e-16
2.22288e-16
-8.97934e-17
-1.56146e-16
-1.62784e-16
0
1.75344e-16
1.81174e-16
-1.86876e-16
-1.92688e-16
1.98904e-16
-2.91196e-30
1.47285e-30
-1.39445e-31
-1.63626e-31
1.59629e-30
-1.06886e-31
1.99095e-30
-3.10445e-16
0
0
0
)
;
    }
    hole
    {
        type            calculated;
        value           nonuniform List<scalar> 
20
(
-3.75e-13
2.64325e-09
0
1.65471e-09
8.93782e-10
2.13544e-09
-5.79287e-10
-1.24929e-09
-5.01796e-10
-1.69556e-10
4.30382e-09
4.24076e-09
2.09419e-09
-4.1099e-09
3.76342e-09
5.81728e-09
-3.42243e-10
-5.3252e-09
-5.03023e-09
-5.05261e-14
)
;
    }
    frontAndBack
    {
        type            empty;
    }
}


// ************************************************************************* //
