/*--------------------------------*- C++ -*----------------------------------*\
  =========                 |
  \\      /  F ield         | OpenFOAM: The Open Source CFD Toolbox
   \\    /   O peration     | Website:  https://openfoam.org
    \\  /    A nd           | Version:  dev
     \\/     M anipulation  |
\*---------------------------------------------------------------------------*/
FoamFile
{
    version     2.0;
    format      ascii;
    class       volScalarField;
    location    "80";
    object      sigmayy;
}
// * * * * * * * * * * * * * * * * * * * * * * * * * * * * * * * * * * * * * //

dimensions      [1 -1 -2 0 0 0 0];

internalField   nonuniform List<scalar> 
1000
(
3211.92
15598.2
25307.5
30791.7
33519.6
34453.4
34265.3
33261.1
31644.1
30430.3
-4108.62
8949.03
18581.5
24524.3
27726.1
29266
29569.9
29184.7
28355.6
28452.6
-9341.4
2967.88
12049.9
17731.9
21173.5
23114.2
24013.9
24286.1
24187.4
24917.2
-11982.3
-1897.75
5412.55
10544.1
13944.6
16209.5
17569.6
18377.7
18883.8
19999.3
-12804.9
-6004.57
-731.437
3364.9
6518.97
8886.92
10609.7
11880.2
12834.9
14208.7
-11922.9
-8952.31
-6321.24
-3350.56
-628.579
1754.14
3698.32
5294.09
6637.3
8199.7
-10206.8
-11018.2
-10797.4
-9100.64
-6891.9
-4645.15
-2575.67
-727.212
888.477
2576.03
-8127.61
-12072.6
-14031.3
-13490.4
-11833.1
-9768.31
-7666.97
-5677.28
-3848.95
-2072.42
-6272.85
-12310.9
-15911.6
-16317
-15162.6
-13308.6
-11222.6
-9134.56
-7167.75
-5344.26
-5076.94
-12181
-16586.5
-17538.4
-16654.3
-14916.5
-12836.2
-10710
-8670.44
-6753.85
121597
91223.6
70484.3
56270.4
46093.5
38465.4
32474.8
27529.5
23283
19509.1
118491
89054.7
69955.5
56712.8
47078.9
39751.9
33920.3
29072.4
24857.5
21072.8
110957
84979.5
68158.3
56414.4
47690.2
40937.9
35468.4
30851.8
26779.3
23057.5
99451.1
78801.1
65391.9
55649
48224.7
42305.5
37394.3
33149.3
29323.2
25730
85639.7
70850.7
61358.8
54219.9
48411
43554
39362.8
35624.2
32153.9
28757
69239.3
61036
56162.9
51889.9
47954
44330.9
41003
37895.9
34888.5
31767.5
53367.8
50683.5
49955.7
48680.8
46683.1
44358.2
41952.3
39548.3
37110.8
34330.8
38423.4
40268.6
43625.1
44941.7
44660.4
43479.4
41920.8
40204.7
38319.2
35887.9
24564.7
31092.8
37429.6
40768.4
41825.8
41576.7
40680.9
39453.1
37942.5
35949.3
12948.4
22791.1
31406.3
36131.7
38197.5
38604.8
38143.1
37033.3
35959.1
34122.4
16076.8
12812.4
9824.42
7030.27
4361.3
1737.54
-881.02
-3545.17
-6272.7
-9099.14
-12032
-15101
-18308.1
-21688.7
-25253.7
-29048.8
-33095
-37461.5
-41999.3
-46351
17476.8
14030.6
10928.1
8043.39
5280.53
2580.79
-116.454
-2838.9
-5627.08
-8493.2
-11469.4
-14560.9
-17799.8
-21192.1
-24777.5
-28572.4
-32634.7
-37012.5
-41707.2
-46692.6
19318
15679.5
12478.1
9485.25
6609.32
3798.19
998.266
-1816.27
-4683.25
-7615.75
-10645.2
-13779.8
-17051.2
-20469
-24073.4
-27886
-31968.4
-36377.9
-41117.9
-46080.5
21826.7
17978.5
14680.4
11561.6
8540.77
5579.44
2637.36
-307.218
-3286.33
-6315.09
-9422.7
-12621.7
-15943.6
-19404.4
-23042.7
-26887
-30998.4
-35430.7
-40166.8
-45047.4
24698.8
20695.9
17351.2
14125.3
10957.2
7829.57
4723.86
1624.59
-1490.64
-4639.77
-7847.06
-11131.8
-14521.7
-18041.1
-21727.6
-25617.2
-29760.1
-34206.2
-38912.3
-43684.1
27609.5
23587.6
20290.9
17013.7
13721.3
10437.9
7163.25
3902.24
634.226
-2648.79
-5976.13
-9360.68
-12838.6
-16429.3
-20178.1
-24112.8
-28295.6
-32743.1
-37419
-42022
30174.8
26356.1
23235.7
19994.9
16628.6
13231
9804.2
6398.05
2975.31
-438.427
-3896.98
-7384.01
-10963.5
-14625.6
-18445.8
-22417.8
-26620.8
-31041.1
-35678.8
-40059.3
32003.4
28642.2
25946
22802.3
19528.8
16027
12563.7
8983.42
5488.24
1891.06
-1631.85
-5287.73
-8907.25
-12716.5
-16535.1
-20604.2
-24715.5
-29145.7
-33506.1
-38101.1
32747.4
30481.3
28257.3
25528.4
22332.4
18958.3
15380.2
11792
8102.39
4455.67
718.226
-2983.93
-6813.18
-10638
-14643.3
-18659.1
-22864.8
-26973.6
-31411.1
-36225.9
31324.8
30351.8
28919.8
26806.1
24073.5
20973.3
17549.6
13995.6
10285.4
6555.74
2725.24
-1098.25
-5031.84
-8970.74
-13048.8
-17124.1
-21278.9
-25271.1
-29560.7
-34316
30122.5
28798.4
27507.7
25646.2
23345.9
20513.5
17434.3
14038
10563.7
6894.18
3226.99
-597.942
-4395.57
-8355.98
-12280.7
-16366.6
-20278.5
-24207.7
-28052
-32310.2
29058.1
27292.4
25946.4
24315.1
22231.1
19717
16850.6
13721.9
10396.8
6933.16
3359.83
-295.63
-4027.48
-7818.87
-11672.9
-15565.8
-19411
-23037.9
-26645.7
-30262.5
27540.8
25999.6
24605.2
23007.8
21081.9
18786.1
16167.5
13275.9
10178.2
6913.21
3525.18
30.291
-3544.62
-7193.39
-10895
-14634.1
-18316.3
-21845.2
-25130.5
-28188.7
25461.8
24358
23104
21603.4
19812.1
17710.9
15311.7
12655.7
9783.15
6737.9
3549.31
246.707
-3153.39
-6627.95
-10165
-13735.8
-17268.1
-20594.5
-23697.7
-26378.8
23182.1
22496.9
21464.7
20118
18482
16561.6
14370.5
11935.3
9288.53
6463.09
3487.68
386.554
-2820.2
-6112.9
-9473.58
-12871.3
-16233
-19459.3
-22372.1
-24824.7
20886.8
20521.2
19723.1
18566.1
17105.5
15369.3
13378.2
11156.4
8729.39
6124.4
3365.4
474.127
-2531.51
-5633.05
-8813
-12045.7
-15270.2
-18342.5
-21199.2
-23620.9
18639.4
18530.7
17934.6
16968.4
15692
14143.6
12350.9
10337.7
8126.94
5741.03
3200.6
523.709
-2274.17
-5178.47
-8175.58
-11242.8
-14326.2
-17357.8
-20172.2
-22639.6
16514.9
16571.1
16138.8
15348.7
14253.3
12892.6
11296.7
9489.75
7492.6
5324.73
3003.42
543.763
-2041.74
-4742.72
-7551.41
-10460.1
-13438.5
-16383.7
-19269.1
-21924.2
14519.8
14686.4
14372.5
13732.4
12805.1
11626.2
10223.8
8620.47
6834.77
4883
2779.62
537.288
-1833.63
-4326.44
-6941.6
-9682.53
-12537
-15494.5
-18448.1
-21315.1
12666.2
12877.7
12652.2
12137.6
11362.7
10356.1
9141.78
7738.41
6161.14
4422.38
2533.46
504.96
-1653.46
-3936.45
-6348.62
-8913.19
-11654.4
-14543.7
-17647.5
-20853.8
10926
11160.4
10992.4
10579.4
9939.94
9094.8
8061.27
6853.6
5481.02
3951.55
2271.12
448.221
-1508.19
-3588.63
-5797.44
-8161.22
-10727.4
-13588.6
-16784.2
-20370.1
9306.94
9522.75
9395.06
9066.07
8548.04
7852.78
6993.21
5975.48
4804.81
3480.08
2002.02
371.276
-1401.88
-3302.51
-5317.31
-7469.9
-9819.32
-12479.5
-15794.9
-19842.5
7777.9
7969.24
7863.41
7603.6
7194.07
6638.38
5944.82
5112.11
4141.01
3019.71
1740.65
290.349
-1325.67
-3089.92
-4960.74
-6909.89
-8958.76
-11349.2
-14493.3
-19014.2
6329.96
6477.47
6388.23
6193.35
5878.84
5457.24
4916.99
4268.56
3490.81
2580.41
1498.31
230.111
-1258.39
-2935.46
-4756.28
-6580.3
-8295.51
-10139.4
-12942
-17564
4933.38
5045.4
4972.15
4829.02
4606.36
4301.91
3910.96
3432.41
2852.41
2151.18
1286.93
210.439
-1134.2
-2769.74
-4640.25
-6486.31
-8052.73
-9356.72
-10889.5
-14911.2
3599.46
3660.62
3610.94
3509.57
3375.55
3168.3
2919.43
2590.5
2209.31
1712.06
1094.23
239.974
-899.365
-2472.87
-4437.46
-6571.9
-8355.23
-9005.41
-9001.32
-10156.7
2304.74
2343.53
2299.16
2253.99
2177.28
2070.67
1922.14
1744.5
1519.99
1241.65
852.559
291.788
-576.855
-1908.41
-3817.88
-6275.23
-8720.8
-10012.7
-7609.67
-2830.27
1081.43
1105.46
1086.13
1088.69
1058.83
1027.98
958.704
897.693
801.119
704.161
528.689
270.015
-229.289
-1080.86
-2563.1
-4997.55
-8469.59
-11267.2
-8006.98
6369.8
82.4989
49.4994
77.8176
97.3158
119.914
121.972
128.769
122.594
131.303
126.153
122.076
65.6699
-68.4483
-385.395
-1136.95
-2814.51
-6121.41
-10202.7
-8833.97
13816.7
62.6767
29.8845
38.2698
38.7895
46.1402
44.8461
55.6685
63.1229
89.2486
113.924
157.373
192.247
229.839
230.568
102.293
-368.185
-1635.53
-4105.48
-4810.51
4878.05
-5131.74
-3804.5
-676.931
3805.19
9235.84
15103.4
20810.2
25749.4
29277.6
31357.8
-3763.51
-2600.73
184.598
4181.08
9042.84
14341
19586.3
24254.7
27698
29867.1
-2598.22
-1649.77
663.263
3998.21
8085
12595
17153
21340.1
24652.1
27141.3
-1566.56
-788.433
1134
3913.67
7336.4
11150.4
15065.5
18758.1
21853.5
24450.8
-662.822
-21.9517
1573.69
3882.12
6736.92
9942.53
13278.7
16498.2
19340.1
21868.3
116.512
641.307
1962.66
3873.65
6243.44
8922.63
11746.5
14533.8
17094
19459.3
771.406
1201.55
2292.66
3868.67
5826.73
8054.12
10429.2
12815.2
15077.8
17211.9
1302.89
1653.71
2552.46
3847.41
5457.6
7299.19
9281.73
11305.2
13272.9
15157.6
1714.49
2002.5
2740.67
3799.53
5115.84
6627.04
8267.58
9963.56
11648.7
13271.3
2008
2242.39
2848.46
3710.39
4778.55
6007.68
7351.66
8758.63
10178.2
11555.3
2192.88
2384.78
2880.33
3575.81
4433.77
5420.69
6508.37
7656.53
8829.67
9968.81
2265.22
2424.57
2827.19
3384.09
4062.79
4844.59
5709.13
6630.84
7578.59
8506.82
2233.34
2367.74
2691.05
3131.58
3656.55
4262.98
4932.76
5654.55
6399.89
7127.86
2083.57
2192.93
2458.09
2797.2
3198.5
3649.66
4157.3
4699.71
5264.9
5821.86
1802.36
1900.26
2116.44
2373.75
2667.56
2990.19
3355.39
3742.79
4149.57
4552.62
1373.87
1473.12
1647.28
1843.47
2041.6
2267.28
2503.99
2767.35
3039.43
3324.1
810.847
912.932
1058.26
1193.59
1325.66
1464.16
1609.53
1769.3
1940.29
2121.08
177.762
293.931
406.64
487.258
569.4
642.558
721.947
806.478
902.412
1007.29
-526.913
-382.674
-308.748
-257.775
-206.129
-157.099
-107.972
-38.483
19.7051
83.8485
-52.0088
49.5722
60.8836
67.2527
75.6916
80.5429
81.6561
85.5415
89.5883
89.4347
)
;

boundaryField
{
    left
    {
        type            symmetryPlane;
    }
    right
    {
        type            calculated;
        value           nonuniform List<scalar> 
30
(
-46236.9
-46550.7
-45935.2
-44902.4
-43541.5
-41881.8
-39909.7
-37922.5
-36051.5
-34139.2
-32166.5
-30116.2
-28083.2
-26267.6
-24746.5
-23524.1
-22567.2
-21823.4
-21234.3
-20735.4
-20267.6
-19692.6
-18886.1
-17412.7
-14866.3
-10297.3
-3368.5
5135.09
12352.5
6113.16
)
;
    }
    down
    {
        type            symmetryPlane;
    }
    up
    {
        type            calculated;
        value           nonuniform List<scalar> 
30
(
-0.00056076
-0.0120342
-0.0333809
-0.0609431
-0.09045
-0.117462
-0.137787
-0.148207
-0.147429
-0.106108
-0.0343783
2.74181e-06
2.5034e-06
-1.90735e-06
2.26498e-06
1.54972e-06
-5.96046e-07
-1.90735e-06
1.43051e-06
1.66893e-06
4.76837e-07
1.54972e-06
2.14577e-06
0
-3.57628e-07
-7.15256e-07
-2.86102e-06
1.66893e-06
-2.26498e-06
8.73804e-05
)
;
    }
    hole
    {
        type            calculated;
        value           nonuniform List<scalar> 
20
(
481.092
-6451.15
-10608.6
-12157.7
-11562.8
-9446.44
-6544.66
-3641.43
-1371.94
-153.856
119563
116301
108438
96672.8
82540.4
66147.8
50169.9
35293.2
21452.5
9945.99
)
;
    }
    frontAndBack
    {
        type            empty;
    }
}


// ************************************************************************* //
