/*--------------------------------*- C++ -*----------------------------------*\
  =========                 |
  \\      /  F ield         | OpenFOAM: The Open Source CFD Toolbox
   \\    /   O peration     | Website:  https://openfoam.org
    \\  /    A nd           | Version:  dev
     \\/     M anipulation  |
\*---------------------------------------------------------------------------*/
FoamFile
{
    version     2.0;
    format      ascii;
    class       volSymmTensorField;
    location    "80";
    object      sigma;
}
// * * * * * * * * * * * * * * * * * * * * * * * * * * * * * * * * * * * * * //

dimensions      [1 -1 -2 0 0 0 0];

internalField   nonuniform List<symmTensor> 
1000
(
(-2388.97 -920.407 6.37561e-10 3211.92 6.88895e-10 -5.07692e+08)
(-13680.4 -2205.88 4.3254e-09 15598.2 4.67766e-09 -5.07692e+08)
(-21282.4 -3142.93 -3.49049e-09 25307.5 -6.41713e-09 -5.07691e+08)
(-25608.7 -3779.11 -2.57996e-09 30791.7 -2.79046e-09 -5.07691e+08)
(-27614.5 -4182.19 5.92703e-09 33519.6 1.09671e-08 -5.07691e+08)
(-28183 -4439.68 3.00558e-09 34453.4 3.25103e-09 -5.07691e+08)
(-27842.8 -4614.89 -2.26452e-09 34265.3 5.55924e-09 -5.07691e+08)
(-26969.9 -4673.25 -4.89281e-10 33261.1 -6.19282e-09 -5.07691e+08)
(-26050.7 -4674.96 -6.83758e-09 31644.1 -3.82456e-09 -5.07691e+08)
(-24270.8 -4155.81 0 30430.3 0 -5.07691e+08)
(-13909.2 7012.51 -3.31617e-09 -4108.62 2.68991e-09 -5.07696e+08)
(-22948.9 773.788 0 8949.03 0 -5.07696e+08)
(-28791.4 -3568.15 2.72942e-09 18581.5 -2.33216e-09 -5.07695e+08)
(-31334.5 -6195.31 -5.05494e-09 24524.3 4.31911e-09 -5.07694e+08)
(-32105.4 -7779.66 -2.50382e-09 27726.1 1.81987e-09 -5.07693e+08)
(-31744.4 -8697.63 4.91619e-09 29266 1.56191e-09 -5.07693e+08)
(-30871 -9211.54 2.08645e-09 29569.9 -1.74413e-09 -5.07693e+08)
(-29637.8 -9366.65 2.05718e-09 29184.7 -7.74021e-09 -5.07692e+08)
(-28233.3 -9110.23 0 28355.6 0 -5.07692e+08)
(-26244.4 -8105.94 0 28452.6 0 -5.07692e+08)
(-27653.8 13881.2 0 -9341.4 0 -5.07701e+08)
(-32336.6 3096.16 0 2967.88 0 -5.07699e+08)
(-35217.7 -4076.48 3.0606e-09 12049.9 -1.8764e-09 -5.07698e+08)
(-35818.5 -8393.55 2.12862e-09 17731.9 3.18512e-09 -5.07696e+08)
(-35129.2 -10871.3 3.26649e-11 21173.5 4.88796e-11 -5.07696e+08)
(-33786.9 -12214 -4.8024e-09 23114.2 -1.97866e-09 -5.07695e+08)
(-32157.5 -12818.3 -3.89172e-10 24013.9 -5.47485e-09 -5.07694e+08)
(-30349.8 -12843.6 -2.1963e-09 24286.1 1.32638e-09 -5.07694e+08)
(-28398.4 -12363.6 2.79483e-09 24187.4 4.18243e-09 -5.07693e+08)
(-26014.1 -11323.7 7.09083e-10 24917.2 2.63702e-09 -5.07693e+08)
(-42545.1 19166 -1.65615e-09 -11982.3 1.41155e-09 -5.07705e+08)
(-41670.9 4889.54 -1.60188e-09 -1897.75 -2.85943e-09 -5.07702e+08)
(-41024.4 -4491.23 -1.64695e-09 5412.55 7.29935e-10 -5.07701e+08)
(-39171.9 -9939.1 1.78211e-09 10544.1 3.1816e-09 -5.07699e+08)
(-36861.2 -13005.3 4.6462e-09 13944.6 1.96603e-09 -5.07698e+08)
(-34381.3 -14562.9 -2.55885e-09 16209.5 1.35265e-09 -5.07697e+08)
(-31935.8 -15178.5 -2.3336e-09 17569.6 1.39621e-09 -5.07696e+08)
(-29480.3 -15107.6 -5.6064e-09 18377.7 3.10266e-09 -5.07695e+08)
(-26946.3 -14534.2 -3.53896e-09 18883.8 -3.83788e-09 -5.07694e+08)
(-24150.6 -13595.6 2.67247e-09 19999.3 1.62001e-09 -5.07693e+08)
(-57940.2 22179.3 -2.14756e-09 -12804.9 4.40851e-10 -5.07709e+08)
(-50564.7 6012.51 3.85441e-11 -6004.57 8.35814e-11 -5.07705e+08)
(-45779.3 -4493.1 -4.83613e-09 -731.437 2.36191e-09 -5.07703e+08)
(-41416.7 -10575.5 -7.63479e-10 3364.9 -1.65582e-09 -5.07701e+08)
(-37427.7 -13906.4 1.7199e-09 6518.97 3.73023e-09 -5.07699e+08)
(-33830.3 -15559.1 4.4337e-09 8886.92 2.70566e-09 -5.07698e+08)
(-30555.9 -16156.5 1.06522e-09 10609.7 2.31043e-09 -5.07697e+08)
(-27463.5 -16046.3 1.33946e-09 11880.2 -3.21627e-09 -5.07696e+08)
(-24440.6 -15489.7 -6.46201e-09 12834.9 -1.11206e-08 -5.07695e+08)
(-21325.5 -14693 -1.81489e-09 14208.7 6.81569e-10 -5.07694e+08)
(-72414.7 22734.1 -4.05243e-09 -11922.9 1.35056e-09 -5.07712e+08)
(-58509 6410.63 3.1866e-11 -8952.31 8.63486e-11 -5.07708e+08)
(-49656.9 -4158.54 -3.18758e-11 -6321.24 -8.63826e-11 -5.07705e+08)
(-42733.8 -10187.5 -6.31193e-10 -3350.56 -1.71062e-09 -5.07703e+08)
(-37150.2 -13476.8 -2.94362e-09 -628.579 9.56866e-10 -5.07701e+08)
(-32487.1 -15085.8 -7.87054e-11 1754.14 -2.13317e-10 -5.07699e+08)
(-28475.5 -15666.6 2.51315e-09 3698.32 -1.04133e-09 -5.07698e+08)
(-24848.9 -15581.3 6.84842e-09 5294.09 5.06333e-11 -5.07697e+08)
(-21421.3 -15093.9 1.12188e-09 6637.3 -4.61512e-10 -5.07696e+08)
(-18064.9 -14452.9 -3.04523e-09 8199.7 -1.6083e-09 -5.07695e+08)
(-84743.7 20657.5 1.66375e-09 -10206.8 -1.96296e-09 -5.07714e+08)
(-64871.4 6121.85 -8.14957e-10 -11018.2 -2.8887e-09 -5.0771e+08)
(-52405.7 -3356.83 1.72029e-09 -10797.4 -5.07833e-10 -5.07707e+08)
(-43316.8 -8796.8 5.45023e-10 -9100.64 1.93216e-09 -5.07704e+08)
(-36352.8 -11748.4 4.1407e-09 -6891.9 3.28708e-09 -5.07702e+08)
(-30797.9 -13204.9 -3.94411e-09 -4645.15 -3.32462e-09 -5.077e+08)
(-26163.2 -13741.9 -2.48062e-09 -2575.67 -8.79477e-09 -5.07699e+08)
(-22102.3 -13702.8 -2.49868e-09 -727.212 5.82591e-10 -5.07698e+08)
(-18383.6 -13333.3 1.33967e-09 888.477 4.7497e-09 -5.07696e+08)
(-14858.9 -12862.3 -7.75518e-10 2576.03 3.00331e-09 -5.07695e+08)
(-93929.9 16431.3 6.26321e-09 -8127.61 -1.33639e-09 -5.07716e+08)
(-69463.3 5204.32 -3.85343e-09 -12072.6 6.10642e-10 -5.07711e+08)
(-54143.6 -2249.21 -2.75031e-11 -14031.3 -1.38237e-10 -5.07708e+08)
(-43378.3 -6557.17 -7.47501e-10 -13490.4 -3.75728e-09 -5.07705e+08)
(-35365.8 -8918.29 6.8567e-09 -11833.1 2.7638e-09 -5.07703e+08)
(-29120.1 -10088.8 7.83526e-10 -9768.31 3.93861e-09 -5.07701e+08)
(-24023.9 -10548.1 3.59626e-11 -7666.97 1.80778e-10 -5.077e+08)
(-19652 -10557.4 -2.00904e-09 -5677.28 3.03717e-09 -5.07698e+08)
(-15724.6 -10319.3 -4.72134e-10 -3848.95 -2.37337e-09 -5.07697e+08)
(-12087.7 -10017.6 -2.29274e-10 -2072.42 -2.66113e-09 -5.07696e+08)
(-99398.5 10595.3 4.37074e-09 -6272.85 6.06325e-10 -5.07717e+08)
(-72197.2 3880.29 -3.6824e-09 -12310.9 2.05516e-09 -5.07712e+08)
(-55102.1 -832.042 -3.90455e-10 -15911.6 -3.29818e-09 -5.07709e+08)
(-43210.2 -3633.59 -6.64703e-10 -16317 -5.61507e-09 -5.07706e+08)
(-34498.7 -5180.77 5.04525e-10 -15162.6 4.26213e-09 -5.07704e+08)
(-27798.4 -5969.95 3.3588e-09 -13308.6 3.76063e-09 -5.07702e+08)
(-22391.5 -6289.65 -5.26242e-10 -11222.6 -4.44576e-09 -5.077e+08)
(-17819.1 -6334.64 5.09044e-09 -9134.56 -6.0269e-10 -5.07699e+08)
(-13766.5 -6219.24 1.19826e-09 -7167.75 -1.89831e-10 -5.07697e+08)
(-10075.8 -6082.83 1.58303e-09 -5344.26 8.10056e-09 -5.07696e+08)
(-100933 3862.89 4.39598e-09 -5076.94 1.88506e-09 -5.07717e+08)
(-73537.8 2424.06 1.14258e-10 -12181 2.90718e-09 -5.07712e+08)
(-55298.9 1012.68 1.65704e-09 -16586.5 -3.50834e-09 -5.07709e+08)
(-42668.9 75.5125 -1.50428e-10 -17538.4 -3.82797e-09 -5.07706e+08)
(-33509.9 -468.733 7.23475e-12 -16654.3 1.84111e-10 -5.07704e+08)
(-26549 -776.227 3.05167e-09 -14916.5 3.96962e-09 -5.07702e+08)
(-20967.8 -924.461 -1.83013e-10 -12836.2 -4.65752e-09 -5.077e+08)
(-16296.4 -988.445 2.5643e-09 -10710 -1.7062e-11 -5.07699e+08)
(-12188.9 -993.584 1.97505e-10 -8670.44 5.0264e-09 -5.07697e+08)
(-8492.11 -997.468 4.96747e-11 -6753.85 2.76553e-09 -5.07696e+08)
(6949.52 -4560.7 1.35699e-09 121597 4.36378e-09 -5.07663e+08)
(16835.8 -2927.34 2.99906e-09 91223.6 1.17795e-10 -5.07667e+08)
(21652.4 -1400.81 -1.82457e-09 70484.3 1.72355e-09 -5.07671e+08)
(23211.8 -368.558 0 56270.4 0 -5.07674e+08)
(22874.8 241.777 -4.10457e-09 46093.5 -1.61246e-10 -5.07676e+08)
(21599.5 592.507 -4.30262e-11 38465.4 2.89423e-09 -5.07678e+08)
(19911.3 776.034 4.47346e-09 32474.8 1.75745e-10 -5.0768e+08)
(18091.6 860.706 2.26586e-09 27529.5 2.65413e-09 -5.07682e+08)
(16296 887.124 2.60843e-09 23283 -1.11078e-09 -5.07683e+08)
(14577.5 895.082 2.70903e-10 19509.1 -3.44253e-09 -5.07684e+08)
(8044.76 -12656.7 8.1525e-11 118491 4.30982e-09 -5.07663e+08)
(16500.3 -5381.04 1.84112e-09 89054.7 -1.74546e-09 -5.07668e+08)
(20653.6 -380.528 -1.90558e-09 69955.5 1.58087e-09 -5.07671e+08)
(21729.1 2595.19 -1.81075e-09 56712.8 -2.14277e-10 -5.07674e+08)
(21208.1 4301.28 0 47078.9 0 -5.07677e+08)
(19879.3 5216.25 -2.27091e-10 39751.9 2.887e-09 -5.07679e+08)
(18210.6 5634.99 4.62893e-09 33920.3 5.47816e-10 -5.0768e+08)
(16454.5 5752.97 1.69393e-11 29072.4 2.00414e-12 -5.07682e+08)
(14732.7 5693.4 -1.02687e-08 24857.5 -1.21528e-09 -5.07683e+08)
(13069.4 5574.89 1.60948e-10 21072.8 -1.49515e-09 -5.07684e+08)
(10025.6 -19670 -4.45469e-10 110957 2.08844e-09 -5.07664e+08)
(15888.2 -8113.56 1.91236e-09 84979.5 -1.60759e-09 -5.07669e+08)
(18342.3 -275.425 3.28624e-10 68158.3 -1.7636e-09 -5.07672e+08)
(18662 4426.55 -1.78836e-09 56414.4 -3.55662e-10 -5.07675e+08)
(17736.7 7090.06 0 47690.2 0 -5.07677e+08)
(16280.1 8519.98 -6.75831e-10 40937.9 2.81594e-09 -5.07679e+08)
(14632.8 9176.8 -9.52354e-10 35468.4 3.96805e-09 -5.07681e+08)
(12979.8 9352.23 2.82267e-09 30851.8 -2.05192e-09 -5.07682e+08)
(11389.7 9236.86 3.01832e-12 26779.3 6.00083e-13 -5.07683e+08)
(9779.04 9007 -2.96258e-09 23057.5 1.75616e-09 -5.07685e+08)
(12158.8 -24944 7.6412e-10 99451.1 -4.2213e-09 -5.07667e+08)
(14600.6 -10496 -1.48867e-09 78801.1 -4.19709e-10 -5.07671e+08)
(15176 -534.433 4.1889e-10 65391.9 -1.74565e-09 -5.07674e+08)
(14373.6 5402.97 0 55649 0 -5.07676e+08)
(12970.6 8819.75 2.99729e-09 48224.7 4.05894e-09 -5.07678e+08)
(11351.4 10666.6 6.37131e-09 42305.5 1.79669e-09 -5.0768e+08)
(9746.98 11533 -4.26657e-09 37394.3 -1.20318e-09 -5.07681e+08)
(8234.29 11772.2 -6.86278e-09 33149.3 -1.93533e-09 -5.07683e+08)
(6818.3 11619.3 2.8313e-10 29323.2 -1.17976e-09 -5.07684e+08)
(5270.04 11290.6 7.11215e-10 25730 -2.1895e-09 -5.07685e+08)
(14467.7 -27948.1 -1.13174e-09 85639.7 4.13375e-09 -5.07669e+08)
(12943.1 -12238.4 2.15593e-09 70850.7 2.87311e-09 -5.07673e+08)
(11058.7 -1217.14 -6.8675e-10 61358.8 1.65863e-09 -5.07676e+08)
(9203.74 5559.83 3.59427e-09 54219.9 1.32575e-09 -5.07678e+08)
(7275.54 9473.47 5.51577e-11 48411 2.03454e-11 -5.07679e+08)
(5515.16 11619.7 -3.04607e-09 43554 -4.20788e-09 -5.07681e+08)
(3982.16 12651.3 2.19784e-10 39362.8 -1.36764e-09 -5.07682e+08)
(2648.73 12953.9 0 35624.2 0 -5.07683e+08)
(1457.57 12782.9 -5.35664e-09 32153.9 -6.83835e-10 -5.07685e+08)
(-11.6433 12360.3 2.81124e-10 28757 -1.02249e-09 -5.07686e+08)
(15876.6 -28265.7 -3.4534e-09 69239.3 5.46158e-09 -5.07673e+08)
(10868.8 -13173.2 -2.67031e-09 61036 -1.23062e-09 -5.07676e+08)
(6693.53 -1946.41 -2.30066e-09 56162.9 9.14781e-10 -5.07678e+08)
(3543.55 4982.18 -1.65594e-09 51889.9 -7.63259e-10 -5.0768e+08)
(1103.58 9076.66 1.18417e-09 47954 -2.86002e-09 -5.07681e+08)
(-780.961 11363.5 2.66747e-09 44330.9 4.41585e-09 -5.07682e+08)
(-2189.92 12509.6 2.6593e-11 41003 1.2258e-11 -5.07683e+08)
(-3289.02 12878.1 -3.23904e-09 37895.9 1.32924e-09 -5.07684e+08)
(-4208.75 12706.4 2.79491e-12 34888.5 1.28822e-12 -5.07685e+08)
(-5565.09 12190.1 -1.12141e-09 31767.5 2.57283e-09 -5.07686e+08)
(16525 -26161.9 -9.58378e-10 53367.8 -5.3635e-10 -5.07676e+08)
(8420.5 -12630.3 -5.3355e-11 50683.5 -2.98703e-11 -5.07679e+08)
(2144.03 -2553.31 -8.03409e-11 49955.7 -4.4982e-11 -5.0768e+08)
(-2173.98 3904.39 -3.32754e-09 48680.8 1.94414e-09 -5.07682e+08)
(-5113.3 7763.84 3.58408e-09 46683.1 2.00689e-09 -5.07683e+08)
(-7059.79 9992.93 -1.4751e-09 44358.2 2.49041e-09 -5.07684e+08)
(-8294.29 11170.3 2.81662e-09 41952.3 -4.65386e-09 -5.07685e+08)
(-9099.05 11601.1 1.48832e-11 39548.3 8.33406e-12 -5.07685e+08)
(-9671.66 11459.3 -1.56343e-09 37110.8 -2.26495e-09 -5.07686e+08)
(-10864.8 10842.2 -8.72521e-10 34330.8 1.70096e-09 -5.07687e+08)
(15659.1 -22102.8 2.85107e-09 38423.4 -5.79769e-09 -5.0768e+08)
(5250.1 -11061.2 -2.44497e-09 40268.6 -1.63314e-09 -5.07682e+08)
(-2734.16 -2786.69 1.47773e-09 43625.1 9.87145e-10 -5.07683e+08)
(-7854.03 2514.71 -1.45229e-09 44941.7 -9.70208e-10 -5.07684e+08)
(-11115.6 5711.08 1.53211e-10 44660.4 1.02357e-10 -5.07685e+08)
(-13019.6 7619.02 -2.09717e-09 43479.4 -4.88112e-09 -5.07685e+08)
(-13965.6 8717.1 -3.74685e-09 41920.8 -2.50332e-09 -5.07686e+08)
(-14361.5 9214.88 3.78512e-09 40204.7 2.52892e-09 -5.07686e+08)
(-14489.2 9149.39 2.16799e-09 38319.2 1.4485e-09 -5.07687e+08)
(-15424.5 8449.39 2.88283e-09 35887.9 5.42848e-10 -5.07688e+08)
(12164.2 -15944.7 4.63269e-09 24564.7 -4.50427e-09 -5.07684e+08)
(493.047 -8457.74 4.8632e-09 31092.8 1.35043e-09 -5.07685e+08)
(-8318.89 -2800.95 -7.23159e-11 37429.6 -5.69952e-11 -5.07686e+08)
(-13765.1 779.662 5.21549e-10 40768.4 -3.81868e-09 -5.07686e+08)
(-16975.4 2962.8 2.00986e-09 41825.8 -2.35413e-09 -5.07687e+08)
(-18582.9 4295.52 1.70173e-09 41576.7 -2.34309e-09 -5.07687e+08)
(-19079.3 5173.81 3.82841e-09 40680.9 3.01778e-09 -5.07687e+08)
(-18931.9 5681.16 -2.48494e-09 39453.1 2.93667e-09 -5.07688e+08)
(-18449.8 5815.43 -2.37494e-09 37942.5 -4.95945e-09 -5.07688e+08)
(-18751.8 5287.35 6.76439e-10 35949.3 -9.31318e-10 -5.07688e+08)
(6454.22 -8836.07 8.68102e-11 12948.4 8.01529e-11 -5.07688e+08)
(-5621.04 -5442.63 1.20356e-09 22791.1 1.1122e-09 -5.07688e+08)
(-14437.9 -2986.52 -1.33666e-09 31406.3 1.20709e-09 -5.07688e+08)
(-19690 -1421.89 5.48082e-10 36131.7 -8.54022e-09 -5.07689e+08)
(-22496 -483.472 -4.31725e-11 38197.5 -3.99025e-11 -5.07689e+08)
(-23642.7 108.153 -2.18261e-09 38604.8 1.92293e-09 -5.07689e+08)
(-23625.9 536.256 3.18965e-09 38143.1 6.64984e-09 -5.07689e+08)
(-22962 853.111 -1.17122e-09 37033.3 6.62553e-10 -5.07689e+08)
(-21636.3 1261.38 -5.54554e-09 35959.1 -5.12587e-09 -5.07689e+08)
(-20678.7 1488.1 6.47476e-09 34122.4 4.47886e-09 -5.07689e+08)
(13052.9 824.105 5.58734e-09 16076.8 -1.14902e-09 -5.07686e+08)
(11730.9 708.929 1.84824e-10 12812.4 -2.26727e-09 -5.07687e+08)
(10619.2 633.629 -8.1071e-09 9824.42 -1.10781e-09 -5.07688e+08)
(9654.94 561.284 -2.71813e-09 7030.27 1.05221e-11 -5.07688e+08)
(8833.71 485.796 -2.1536e-10 4361.3 3.45422e-09 -5.07689e+08)
(8146.76 408.213 0 1737.54 0 -5.0769e+08)
(7591.19 330.657 0 -881.02 0 -5.07691e+08)
(7158.64 254.671 2.65377e-09 -3545.17 -1.0273e-11 -5.07691e+08)
(6839.74 180.535 6.46761e-11 -6272.7 -1.17561e-09 -5.07692e+08)
(6628.99 108.68 5.24336e-09 -9099.14 -2.02987e-11 -5.07693e+08)
(6516.07 37.3506 1.67857e-10 -12032 -3.56359e-09 -5.07694e+08)
(6503.39 -32.0715 -6.98178e-11 -15101 1.1941e-09 -5.07694e+08)
(6584.33 -103.87 1.40544e-10 -18308.1 -3.60068e-09 -5.07695e+08)
(6777.09 -179.889 -7.74179e-09 -21688.7 2.99759e-11 -5.07696e+08)
(7087.48 -263.471 2.52955e-09 -25253.7 1.20275e-09 -5.07696e+08)
(7527.61 -351.516 9.14267e-12 -29048.8 -3.54044e-14 -5.07697e+08)
(8087.47 -450.635 -2.53955e-09 -33095 9.83493e-12 -5.07698e+08)
(8670.83 -525.578 2.51677e-09 -37461.5 -9.74716e-12 -5.07699e+08)
(9263.33 -487.813 -4.97317e-09 -41999.3 -3.69419e-09 -5.077e+08)
(9619.81 -146.076 -2.50794e-09 -46351 2.53013e-09 -5.07701e+08)
(11650.3 5169.68 8.38328e-09 17476.8 -8.53504e-10 -5.07686e+08)
(10527.2 4613.57 1.75664e-10 14030.6 -2.25721e-09 -5.07687e+08)
(9652.98 4210.48 -2.63461e-09 10928.1 -1.10412e-09 -5.07688e+08)
(8879.05 3834.86 8.37385e-09 8043.39 -2.39554e-09 -5.07688e+08)
(8209.4 3470.36 1.0559e-10 5280.53 1.12357e-09 -5.07689e+08)
(7649.34 3120.37 -8.15024e-09 2580.79 1.25661e-09 -5.0769e+08)
(7194.91 2789 2.58125e-10 -116.454 -2.34581e-09 -5.07691e+08)
(6846.98 2478.44 0 -2838.9 0 -5.07691e+08)
(6594.74 2186.87 5.53265e-11 -5627.08 -1.17305e-09 -5.07692e+08)
(6439.42 1912.84 2.07002e-10 -8493.2 -2.38627e-09 -5.07693e+08)
(6368.85 1651.17 2.92133e-09 -11469.4 -5.98709e-09 -5.07693e+08)
(6391.46 1398.15 5.26314e-11 -14560.9 -1.36966e-11 -5.07694e+08)
(6500.2 1143.84 -2.5377e-09 -17799.8 -2.35606e-09 -5.07695e+08)
(6710.86 888.389 2.55182e-09 -21192.1 -2.88482e-11 -5.07696e+08)
(7032.86 612.987 2.57641e-09 -24777.5 -4.15114e-11 -5.07696e+08)
(7482.43 318.927 -2.52542e-09 -28572.4 2.85533e-11 -5.07697e+08)
(8031.98 6.13563 -2.52125e-09 -32634.7 2.85083e-11 -5.07698e+08)
(8596.49 -277.133 -4.99884e-09 -37012.5 5.65264e-11 -5.07699e+08)
(9157.06 -435.233 -4.16444e-11 -41707.2 2.90123e-11 -5.077e+08)
(9527.09 -170.498 1.6558e-09 -46692.6 3.65491e-09 -5.07701e+08)
(8506.69 8352.59 2.69711e-09 19318 -4.80797e-11 -5.07686e+08)
(7753.83 7524.99 2.67348e-10 15679.5 -1.14388e-09 -5.07687e+08)
(7367.25 6935.91 -8.01067e-09 12478.1 1.42779e-10 -5.07688e+08)
(6999.04 6371.4 2.23238e-09 9485.25 1.1513e-09 -5.07689e+08)
(6668.77 5810.94 8.23135e-09 6609.32 -2.44362e-09 -5.07689e+08)
(6390.82 5264.41 -8.0016e-09 3798.19 1.29884e-09 -5.0769e+08)
(6169.87 4741.37 -2.77757e-09 998.266 8.92971e-11 -5.07691e+08)
(6013.38 4246.84 5.20774e-09 -1816.27 -9.28135e-11 -5.07691e+08)
(5918.22 3780.02 -4.81569e-09 -4683.25 -2.3153e-09 -5.07692e+08)
(5889.98 3338.22 -5.26172e-09 -7615.75 1.36981e-10 -5.07693e+08)
(5923.5 2914.66 5.00399e-09 -10645.2 -4.55597e-11 -5.07693e+08)
(6028 2503.7 7.59123e-09 -13779.8 -1.13472e-10 -5.07694e+08)
(6203.65 2093.61 4.96926e-11 -17051.2 -2.25427e-11 -5.07695e+08)
(6470.8 1671.36 -2.52266e-09 -20469 4.49693e-11 -5.07696e+08)
(6836.44 1225.22 2.47119e-09 -24073.4 -2.34033e-11 -5.07696e+08)
(7314.37 748.654 8.65138e-12 -27886 -1.54251e-13 -5.07697e+08)
(7894.82 233.707 -2.48551e-09 -31968.4 4.43162e-11 -5.07698e+08)
(8494.55 -257.78 2.42512e-09 -36377.9 1.2198e-09 -5.07699e+08)
(9090.01 -579.735 2.36492e-09 -41117.9 6.25239e-09 -5.077e+08)
(9515.71 -251.508 9.18626e-13 -46080.5 -1.40293e-11 -5.07701e+08)
(4160.35 10459.2 0 21826.7 0 -5.07686e+08)
(3885.56 9521.41 2.51909e-10 17978.5 -1.12822e-09 -5.07687e+08)
(4144.55 8894.47 2.61251e-09 14680.4 -5.98054e-11 -5.07688e+08)
(4327.8 8266.01 2.87111e-09 11561.6 -1.34853e-10 -5.07689e+08)
(4467.25 7615.17 0 8540.77 0 -5.07689e+08)
(4584.98 6960.51 -2.27912e-09 5579.44 -1.13709e-09 -5.0769e+08)
(4694.13 6318.8 -2.95317e-09 2637.36 2.41317e-09 -5.07691e+08)
(4810.19 5700.5 -5.07077e-09 -307.218 1.16065e-10 -5.07691e+08)
(4939.62 5107.76 -3.85614e-10 -3286.33 1.28942e-09 -5.07692e+08)
(5094.95 4539.16 4.72305e-09 -6315.09 2.29429e-09 -5.07693e+08)
(5278.67 3988.6 2.20684e-09 -9422.7 2.37005e-09 -5.07693e+08)
(5506.89 3446.98 4.15392e-10 -12621.7 -2.53957e-09 -5.07694e+08)
(5786.08 2901.68 -2.04569e-09 -15943.6 -3.6972e-09 -5.07695e+08)
(6134.51 2339.92 2.3193e-09 -19404.4 1.21287e-09 -5.07695e+08)
(6572.1 1740.26 2.36886e-09 -23042.7 1.19002e-09 -5.07696e+08)
(7117.93 1087.67 -2.43638e-09 -26887 5.57867e-11 -5.07697e+08)
(7754.22 381.857 -7.6342e-12 -30998.4 1.74824e-13 -5.07698e+08)
(8409.91 -306.332 7.21664e-09 -35430.7 1.10152e-09 -5.07699e+08)
(9054.87 -781.181 -2.34429e-09 -40166.8 -1.28602e-09 -5.07699e+08)
(9516.84 -345.945 -2.41635e-09 -45047.4 2.89549e-09 -5.07701e+08)
(-975.184 11417.7 4.94995e-09 24698.8 2.01231e-09 -5.07687e+08)
(-718.263 10538.3 -4.43316e-10 20695.9 1.15494e-09 -5.07688e+08)
(271.986 10030.6 -5.51452e-09 17351.2 1.30346e-09 -5.07688e+08)
(1094.71 9475.01 2.61654e-09 14125.3 -1.15742e-09 -5.07689e+08)
(1787.21 8853.57 6.22977e-09 10957.2 -3.73621e-09 -5.07689e+08)
(2375.91 8193.23 -2.59358e-09 7829.57 1.00803e-10 -5.0769e+08)
(2881.42 7518.91 0 4723.86 0 -5.07691e+08)
(3327.05 6847.8 2.46212e-09 1624.59 -6.41436e-11 -5.07691e+08)
(3730.1 6187.43 -6.83992e-10 -1490.64 3.64809e-09 -5.07692e+08)
(4111.05 5539.81 -2.72542e-09 -4639.77 1.33139e-09 -5.07692e+08)
(4482.98 4900.65 -4.33357e-09 -7847.06 -2.43123e-09 -5.07693e+08)
(4865.29 4262.68 -4.76783e-09 -11131.8 -1.04048e-09 -5.07694e+08)
(5273.27 3611.68 6.48864e-09 -14521.7 3.78768e-09 -5.07694e+08)
(5734.72 2927.78 7.05296e-09 -18041.1 1.07957e-09 -5.07695e+08)
(6267.86 2191.25 1.52227e-10 -21727.6 -1.31375e-09 -5.07696e+08)
(6891.45 1383.58 -2.24455e-09 -25617.2 -1.25821e-09 -5.07697e+08)
(7609.7 493.314 1.89123e-10 -29760.1 -2.65004e-09 -5.07697e+08)
(8339.51 -385.828 7.59516e-11 -34206.2 -1.32926e-09 -5.07698e+08)
(9034.16 -994.271 4.75003e-09 -38912.3 -2.70109e-09 -5.07699e+08)
(9524.8 -439.244 2.34635e-09 -43684.1 9.49959e-10 -5.077e+08)
(-6426.22 11193.3 2.77873e-09 27609.5 4.98281e-10 -5.07687e+08)
(-5652.14 10533.2 1.12597e-10 23587.6 -3.04987e-11 -5.07688e+08)
(-3928.27 10294.3 -2.8812e-09 20290.9 1.21238e-09 -5.07689e+08)
(-2442.65 9948.8 -8.15292e-09 17013.7 2.52456e-09 -5.07689e+08)
(-1168.92 9479.94 2.5701e-09 13721.3 -1.1647e-09 -5.07689e+08)
(-78.1316 8922.42 4.96503e-09 10437.9 -1.73763e-10 -5.0769e+08)
(852.513 8306.15 -2.40862e-09 7163.25 6.49591e-11 -5.0769e+08)
(1656.77 7658 1.97227e-09 3902.24 1.20986e-09 -5.07691e+08)
(2359.79 6991.28 3.50446e-09 634.226 -3.93436e-09 -5.07692e+08)
(2992.99 6315.51 -6.97368e-09 -2648.79 1.40799e-10 -5.07692e+08)
(3575.56 5629.93 -2.50194e-09 -5976.13 1.63592e-10 -5.07693e+08)
(4137.22 4929.31 1.11888e-08 -9360.68 2.24877e-09 -5.07694e+08)
(4696.69 4199.79 1.32601e-09 -12838.6 6.40145e-09 -5.07694e+08)
(5283.03 3423.06 -6.93561e-09 -16429.3 1.87093e-10 -5.07695e+08)
(5924.51 2570.2 -2.1539e-09 -20178.1 -1.25089e-09 -5.07696e+08)
(6650.85 1616.5 -4.92335e-09 -24112.8 2.90082e-09 -5.07696e+08)
(7445.82 555.725 -5.62615e-11 -28295.6 8.39173e-11 -5.07697e+08)
(8247.55 -503.207 6.92641e-09 -32743.1 -1.52056e-09 -5.07698e+08)
(8997.8 -1233.9 2.24026e-09 -37419 1.27917e-09 -5.07699e+08)
(9532.61 -541.156 9.36368e-12 -42022 -2.69022e-09 -5.077e+08)
(-11700.2 9822.96 -2.73983e-09 30174.8 -5.79217e-10 -5.07688e+08)
(-10493.8 9515.3 2.27453e-09 26356.1 -2.72362e-11 -5.07689e+08)
(-8125.28 9668.66 6.56893e-10 23235.7 -1.18753e-09 -5.07689e+08)
(-6028.44 9655.79 -2.37765e-09 19994.9 6.04399e-11 -5.07689e+08)
(-4209.01 9454.44 -9.39751e-10 16628.6 2.38626e-09 -5.07689e+08)
(-2635.87 9101.9 4.47084e-10 13231 -1.21427e-09 -5.0769e+08)
(-1292.4 8629.55 3.3413e-09 9804.2 -2.63131e-09 -5.0769e+08)
(-128.864 8076.53 -5.92127e-09 6398.05 3.98686e-09 -5.07691e+08)
(877.69 7461.92 -3.4881e-09 2975.31 2.88662e-09 -5.07691e+08)
(1775.71 6807.11 5.72199e-09 -438.427 -4.10227e-09 -5.07692e+08)
(2581.77 6114.55 -6.28511e-10 -3896.98 2.61356e-09 -5.07693e+08)
(3339.3 5387.26 6.6901e-09 -7384.01 -1.70041e-10 -5.07693e+08)
(4062.6 4610.33 2.87095e-09 -10963.5 -2.8459e-09 -5.07694e+08)
(4799 3764.22 -6.39097e-09 -14625.6 -1.23617e-09 -5.07695e+08)
(5557.7 2818.76 3.72428e-09 -18445.8 4.13101e-09 -5.07695e+08)
(6374.25 1744.32 1.13082e-10 -22417.8 -1.58993e-10 -5.07696e+08)
(7235.92 523.583 -6.86219e-09 -26620.8 2.91964e-09 -5.07697e+08)
(8100.11 -710.04 2.20197e-09 -31041.1 -5.60049e-11 -5.07698e+08)
(8864.69 -1548.12 2.26561e-09 -35678.8 -1.48213e-09 -5.07698e+08)
(9501.57 -660.195 6.77195e-12 -40059.3 -1.42334e-09 -5.07699e+08)
(-16282.8 7448.26 1.41685e-10 32003.4 -3.09479e-11 -5.07689e+08)
(-14802.7 7589.89 -2.16791e-09 28642.2 1.31291e-11 -5.07689e+08)
(-11947.6 8247.13 -1.69759e-09 25946 -1.10106e-09 -5.07689e+08)
(-9397.61 8657.96 0 22802.3 0 -5.07689e+08)
(-7121.3 8835.83 0 19528.8 0 -5.07689e+08)
(-5164.82 8765.36 -5.08403e-09 16027 1.38235e-09 -5.0769e+08)
(-3441.88 8524.06 6.31431e-09 12563.7 -2.2223e-11 -5.0769e+08)
(-1969.04 8122.28 1.17839e-08 8983.42 -1.70368e-09 -5.07691e+08)
(-654.993 7622.86 -1.03255e-08 5488.24 -9.27687e-11 -5.07691e+08)
(485.428 7028.55 -7.21226e-09 1891.06 1.66907e-09 -5.07692e+08)
(1537.63 6374.47 4.30428e-09 -1631.85 -9.15558e-11 -5.07692e+08)
(2483.07 5648.95 1.7118e-09 -5287.73 1.3925e-09 -5.07693e+08)
(3405.23 4857.23 9.94803e-10 -8907.25 -4.22615e-09 -5.07694e+08)
(4276.12 3970.42 5.13424e-09 -12716.5 -4.4247e-09 -5.07694e+08)
(5181.6 2961.23 1.51043e-10 -16535.1 -1.93788e-10 -5.07695e+08)
(6072.11 1793.78 -5.3395e-09 -20604.2 -7.101e-09 -5.07696e+08)
(7009.27 448.444 0 -24715.5 0 -5.07696e+08)
(7854.25 -941.619 -2.4502e-10 -29145.7 2.97507e-09 -5.07697e+08)
(8660.53 -1862.73 6.24846e-11 -33506.1 -1.43808e-09 -5.07698e+08)
(9404.57 -745.144 2.26591e-11 -38101.1 -4.39555e-09 -5.07699e+08)
(-19548.3 4388.71 -1.57559e-10 32747.4 3.11253e-11 -5.07689e+08)
(-17881.2 5148 7.40847e-10 30481.3 -1.11188e-09 -5.07689e+08)
(-14887.3 6326.31 -8.69776e-10 28257.3 1.19094e-09 -5.07689e+08)
(-12120 7239.81 -8.41088e-10 25528.4 1.23255e-09 -5.07689e+08)
(-9637.31 7828.04 3.74756e-09 22332.4 -2.57755e-09 -5.07689e+08)
(-7420.81 8123.93 1.70795e-09 18958.3 -2.68566e-09 -5.0769e+08)
(-5457.42 8157.52 -3.32891e-09 15380.2 2.60319e-09 -5.0769e+08)
(-3712.82 7985.26 -3.10934e-09 11792 -2.50665e-09 -5.0769e+08)
(-2167.51 7642.97 1.46488e-09 8102.39 3.33135e-10 -5.07691e+08)
(-777.49 7171.64 3.24126e-09 4455.67 2.6152e-09 -5.07691e+08)
(472.886 6589.53 -1.65417e-09 718.226 4.43381e-09 -5.07692e+08)
(1634.18 5912.21 9.32069e-11 -2983.93 -7.82016e-11 -5.07693e+08)
(2713.91 5133.03 -5.69161e-09 -6813.18 -1.3557e-09 -5.07693e+08)
(3766.91 4238.76 -1.33926e-10 -10638 1.52816e-10 -5.07694e+08)
(4779.78 3200.64 5.0633e-10 -14643.3 -2.87615e-09 -5.07695e+08)
(5793.88 1988.31 -8.21883e-11 -18659.1 1.39832e-10 -5.07695e+08)
(6745.75 565.954 7.87285e-09 -22864.8 1.44062e-09 -5.07696e+08)
(7641.36 -898.539 -1.08421e-10 -26973.6 1.43816e-09 -5.07697e+08)
(8570.81 -1952.85 -8.21427e-09 -31411.1 1.66818e-09 -5.07698e+08)
(9418.68 -837.542 -1.36607e-09 -36225.9 1.75762e-09 -5.07698e+08)
(-21389.6 992.01 2.62641e-11 31324.8 3.94837e-10 -5.0769e+08)
(-19555.7 2548.3 -6.46424e-10 30351.8 1.51549e-09 -5.0769e+08)
(-16810.9 4157.92 1.86298e-09 28919.8 -4.10073e-10 -5.0769e+08)
(-14134.8 5506.93 -6.40696e-09 26806.1 -3.46536e-10 -5.07689e+08)
(-11624.3 6529.11 -5.65478e-09 24073.5 7.47794e-10 -5.07689e+08)
(-9279.14 7228.77 4.76669e-09 20973.3 9.89104e-10 -5.0769e+08)
(-7147.68 7616.67 5.52727e-09 17549.6 1.59767e-09 -5.0769e+08)
(-5198.29 7739.56 5.65807e-09 13995.6 -3.25833e-10 -5.0769e+08)
(-3456.4 7633.78 -3.8634e-09 10285.4 1.96417e-09 -5.07691e+08)
(-1864.06 7341.31 1.61295e-10 6555.74 2.57103e-10 -5.07691e+08)
(-436.383 6892.04 -5.66601e-10 2725.24 -7.19803e-10 -5.07692e+08)
(899.004 6300.59 -5.59046e-09 -1098.25 2.54972e-10 -5.07692e+08)
(2124.74 5577.95 0 -5031.84 0 -5.07693e+08)
(3318.52 4703.17 9.24367e-10 -8970.74 4.77911e-09 -5.07694e+08)
(4445.39 3669.39 -1.21155e-10 -13048.8 -1.94205e-10 -5.07694e+08)
(5553.35 2443.93 -6.82551e-10 -17124.1 4.85969e-09 -5.07695e+08)
(6555.59 1048.27 1.84172e-09 -21278.9 -1.97732e-10 -5.07696e+08)
(7597.97 -516.597 2.31844e-10 -25271.1 -3.32185e-09 -5.07696e+08)
(8610.22 -1833.58 -3.18479e-11 -29560.7 -1.9289e-10 -5.07697e+08)
(9410.67 -800.037 -2.14893e-11 -34316 2.91849e-09 -5.07698e+08)
(-19510.8 -556.71 2.46936e-09 30122.5 8.66845e-11 -5.0769e+08)
(-18164.5 1081.51 -6.72169e-10 28798.4 1.68479e-09 -5.0769e+08)
(-16650.5 2494.66 -1.12528e-09 27507.7 6.8042e-11 -5.0769e+08)
(-14690.3 3825.73 5.99159e-10 25646.2 -1.70105e-09 -5.0769e+08)
(-12540.1 4991.77 6.37488e-10 23345.9 5.17555e-09 -5.0769e+08)
(-10393.6 5895.14 1.87502e-10 20513.5 3.37357e-09 -5.0769e+08)
(-8302.04 6531.83 -2.24826e-09 17434.3 1.71502e-09 -5.0769e+08)
(-6350.55 6894.4 -1.31231e-09 14038 -1.71649e-09 -5.07691e+08)
(-4516.79 7018.78 2.99505e-09 10563.7 -5.15063e-09 -5.07691e+08)
(-2844.88 6924.55 -3.73577e-10 6894.18 -4.5843e-11 -5.07691e+08)
(-1276.46 6642.21 1.00739e-09 3226.99 -3.37718e-09 -5.07692e+08)
(158.383 6185.46 -2.98465e-10 -597.942 -5.27274e-11 -5.07692e+08)
(1536.44 5559.02 0 -4395.57 0 -5.07693e+08)
(2824.37 4758.22 -2.24463e-10 -8355.98 1.69602e-09 -5.07694e+08)
(4095.42 3767.18 1.88236e-10 -12280.7 -1.68761e-09 -5.07694e+08)
(5274.17 2597.67 -1.52741e-10 -16366.6 -8.35065e-11 -5.07695e+08)
(6420.48 1239.88 -1.64388e-09 -20278.5 -1.66666e-09 -5.07696e+08)
(7435.2 -285.546 8.34241e-11 -24207.7 1.06803e-10 -5.07696e+08)
(8637.14 -1711.02 4.99018e-11 -28052 1.2025e-10 -5.07697e+08)
(9521 -837.641 5.73937e-12 -32310.2 1.34758e-10 -5.07698e+08)
(-18048.3 -1678.12 1.68452e-09 29058.1 -6.72527e-10 -5.0769e+08)
(-16274.4 -54.0446 0 27292.4 0 -5.0769e+08)
(-14937.4 1311 -1.76135e-09 25946.4 1.45811e-13 -5.0769e+08)
(-13402.8 2567.86 2.9723e-23 24315.1 -6.05284e-24 -5.0769e+08)
(-11693.8 3709.7 -3.11789e-24 22231.1 -1.21247e-23 -5.0769e+08)
(-9894.82 4668.86 1.25251e-23 19717 -2.34685e-23 -5.0769e+08)
(-8084.26 5401.19 2.44428e-23 16850.6 -1.21025e-23 -5.0769e+08)
(-6313.75 5892.71 -1.76138e-09 13721.9 1.29928e-13 -5.07691e+08)
(-4616.78 6149.15 0 10396.8 0 -5.07691e+08)
(-3004.56 6185.7 1.7614e-09 6933.16 -1.29415e-13 -5.07691e+08)
(-1479.08 6017.91 -1.81873e-23 3359.83 -6.84315e-24 -5.07692e+08)
(-28.5821 5657.02 -1.76141e-09 -295.63 1.33395e-13 -5.07692e+08)
(1358.98 5106.59 1.76142e-09 -4027.48 -1.3713e-13 -5.07693e+08)
(2702.87 4358.35 1.21234e-23 -7818.87 -1.21012e-23 -5.07693e+08)
(4008.94 3407.57 -1.76143e-09 -11672.9 1.4849e-13 -5.07694e+08)
(5252.54 2289.37 -1.21005e-23 -15565.8 1.96622e-25 -5.07695e+08)
(6394.59 1035.48 1.76144e-09 -19411 -1.64281e-13 -5.07695e+08)
(7576.76 -458.635 1.76145e-09 -23037.9 -1.74211e-13 -5.07696e+08)
(8682.05 -1889.09 -1.21013e-23 -26645.7 -6.4518e-24 -5.07696e+08)
(9512.44 -887.33 -4.03377e-24 -30262.5 -6.45182e-24 -5.07697e+08)
(-16436.9 -2775.36 1.76149e-09 27540.8 1.76134e-09 -5.0769e+08)
(-14699.2 -1135.68 1.46782e-13 25999.6 1.76149e-09 -5.0769e+08)
(-13350.7 200.654 -1.7612e-09 24605.2 1.76164e-09 -5.0769e+08)
(-11975.5 1385.81 0 23007.8 0 -5.0769e+08)
(-10501.6 2473.79 1.76153e-09 21081.9 1.76133e-09 -5.0769e+08)
(-8947.84 3426.9 1.76171e-09 18786.1 3.52279e-09 -5.0769e+08)
(-7350.65 4200.55 -1.76121e-09 16167.5 1.7616e-09 -5.0769e+08)
(-5755.59 4765.44 -1.76104e-09 13275.9 3.52304e-09 -5.07691e+08)
(-4190.48 5112.49 1.76139e-09 10178.2 -1.39183e-13 -5.07691e+08)
(-2676.49 5243.04 3.52352e-13 6913.21 3.52286e-09 -5.07691e+08)
(-1216.11 5163.4 1.77279e-13 3525.18 1.76142e-09 -5.07692e+08)
(190.676 4878.26 3.56085e-13 30.291 3.52282e-09 -5.07692e+08)
(1555.93 4388.17 3.57071e-13 -3544.62 3.5228e-09 -5.07693e+08)
(2888.31 3685.62 1.78806e-13 -7193.39 1.76139e-09 -5.07693e+08)
(4194.11 2771.8 3.57782e-13 -10895 3.52276e-09 -5.07694e+08)
(5451.82 1696.16 3.57632e-13 -14634.1 3.52274e-09 -5.07694e+08)
(6637.05 506.909 -1.76144e-09 -18316.3 1.75089e-13 -5.07695e+08)
(7690.07 -877.987 1.78271e-13 -21845.2 1.76135e-09 -5.07696e+08)
(8813.9 -2238.5 1.7771e-13 -25130.5 1.76134e-09 -5.07696e+08)
(9648.61 -1005.7 5.86993e-14 -28188.7 1.76133e-09 -5.07697e+08)
(-14471.6 -3939.03 6.80327e-09 25461.8 -2.39809e-09 -5.0769e+08)
(-12984.2 -2276.17 -1.43343e-13 24358 -1.76149e-09 -5.0769e+08)
(-11683.3 -919.66 -3.52257e-09 23104 1.76179e-09 -5.0769e+08)