/*--------------------------------*- C++ -*----------------------------------*\
  =========                 |
  \\      /  F ield         | OpenFOAM: The Open Source CFD Toolbox
   \\    /   O peration     | Website:  https://openfoam.org
    \\  /    A nd           | Version:  dev
     \\/     M anipulation  |
\*---------------------------------------------------------------------------*/
FoamFile
{
    version     2.0;
    format      ascii;
    class       volVectorField;
    location    "20";
    object      D;
}
// * * * * * * * * * * * * * * * * * * * * * * * * * * * * * * * * * * * * * //

dimensions      [0 1 0 0 0 0 0];

internalField   nonuniform List<vector> 
1000
(
(0.00117121 0.00127713 0)
(0.00128347 0.00139777 0)
(0.00139559 0.00151843 0)
(0.00150764 0.00163913 0)
(0.00161965 0.00175989 0)
(0.00173163 0.0018807 0)
(0.00184361 0.00200154 0)
(0.00195557 0.00212243 0)
(0.00206753 0.00224334 0)
(0.00217949 0.00236427 0)
(0.00106845 0.00136549 0)
(0.00117078 0.00149469 0)
(0.00127302 0.00162386 0)
(0.00137522 0.00175303 0)
(0.00147739 0.00188223 0)
(0.00157954 0.00201146 0)
(0.00168168 0.00214073 0)
(0.0017838 0.00227002 0)
(0.00188593 0.00239934 0)
(0.00198807 0.00252868 0)
(0.000959019 0.00144537 0)
(0.00105077 0.00158232 0)
(0.0011425 0.00171919 0)
(0.00123422 0.00185604 0)
(0.00132592 0.00199289 0)
(0.0014176 0.00212976 0)
(0.00150928 0.00226666 0)
(0.00160095 0.00240358 0)
(0.00169262 0.00254052 0)
(0.00178432 0.00267746 0)
(0.000843603 0.0015163 0)
(0.000924217 0.00166012 0)
(0.00100487 0.00180384 0)
(0.00108554 0.00194752 0)
(0.0011662 0.00209119 0)
(0.00124685 0.00223487 0)
(0.0013275 0.00237856 0)
(0.00140815 0.00252226 0)
(0.00148881 0.00266598 0)
(0.0015695 0.00280969 0)
(0.000722919 0.00157787 0)
(0.000791917 0.00172764 0)
(0.000861002 0.00187731 0)
(0.000930118 0.00202693 0)
(0.000999241 0.00217654 0)
(0.00106836 0.00232613 0)
(0.00113748 0.00247573 0)
(0.00120661 0.00262534 0)
(0.00127575 0.00277495 0)
(0.00134492 0.00292456 0)
(0.000597719 0.00162973 0)
(0.000654712 0.00178448 0)
(0.000711809 0.00193917 0)
(0.000768947 0.00209381 0)
(0.0008261 0.00224842 0)
(0.000883257 0.00240301 0)
(0.000940419 0.0025576 0)
(0.000997589 0.00271219 0)
(0.00105478 0.00286677 0)
(0.00111199 0.00302134 0)
(0.000468794 0.00167158 0)
(0.000513461 0.00183035 0)
(0.000558227 0.00198908 0)
(0.000603035 0.00214777 0)
(0.000647859 0.00230642 0)
(0.000692693 0.00246506 0)
(0.000737534 0.00262368 0)
(0.000782384 0.00278229 0)
(0.000827252 0.00294089 0)
(0.000872139 0.00309947 0)
(0.000336945 0.0017032 0)
(0.000369045 0.00186499 0)
(0.000401212 0.00202677 0)
(0.000433411 0.00218851 0)
(0.000465627 0.00235022 0)
(0.000497854 0.00251191 0)
(0.000530089 0.00267358 0)
(0.000562333 0.00283523 0)
(0.000594592 0.00299686 0)
(0.000626864 0.00315848 0)
(0.000203003 0.00172441 0)
(0.00022235 0.00188822 0)
(0.000241725 0.00205202 0)
(0.00026112 0.0022158 0)
(0.000280529 0.00237956 0)
(0.000299946 0.00254329 0)
(0.00031937 0.002707 0)
(0.0003388 0.00287069 0)
(0.00035824 0.00303436 0)
(0.000377688 0.00319801 0)
(6.78038e-05 0.00173508 0)
(7.4273e-05 0.00189989 0)
(8.07428e-05 0.0020647 0)
(8.72196e-05 0.0022295 0)
(9.3702e-05 0.00239428 0)
(0.000100188 0.00255904 0)
(0.000106676 0.00272377 0)
(0.000113168 0.00288848 0)
(0.000119662 0.00305317 0)
(0.000126159 0.00321783 0)
(0.00171957 6.83414e-05 0)
(0.00188421 7.46668e-05 0)
(0.00204902 8.10465e-05 0)
(0.0022139 8.74654e-05 0)
(0.00237878 9.39082e-05 0)
(0.00254365 0.000100365 0)
(0.00270848 0.000106829 0)
(0.00287329 0.000113298 0)
(0.00303807 0.000119771 0)
(0.00320283 0.000126246 0)
(0.00170908 0.000204625 0)
(0.00187275 0.000223541 0)
(0.00203657 0.000242657 0)
(0.00220043 0.000261885 0)
(0.00236429 0.000281176 0)
(0.00252813 0.000300505 0)
(0.00269194 0.000319856 0)
(0.00285573 0.000339221 0)
(0.0030195 0.000358596 0)
(0.00318323 0.000377979 0)
(0.00168821 0.000339655 0)
(0.00184995 0.000371073 0)
(0.00201176 0.000402823 0)
(0.00217359 0.000434749 0)
(0.00233541 0.000466772 0)
(0.00249721 0.000498852 0)
(0.00265899 0.000530967 0)
(0.00282074 0.000563103 0)
(0.00298248 0.000595256 0)
(0.00314419 0.000627422 0)
(0.00165706 0.000472579 0)
(0.00181588 0.000516373 0)
(0.0019747 0.000560587 0)
(0.0021335 0.000605022 0)
(0.00229228 0.000649581 0)
(0.00245104 0.000694212 0)
(0.00260978 0.000738888 0)
(0.0027685 0.000783592 0)
(0.00292721 0.000828317 0)
(0.0030859 0.00087306 0)
(0.00161577 0.000602559 0)
(0.0017707 0.00065855 0)
(0.00192554 0.000714988 0)
(0.00208033 0.000771669 0)
(0.00223509 0.000828491 0)
(0.00238983 0.000885396 0)
(0.00254456 0.000942352 0)
(0.00269927 0.000999342 0)
(0.00285398 0.00105636 0)
(0.00300867 0.0011134 0)
(0.00156454 0.000728787 0)
(0.00171461 0.000796712 0)
(0.00186452 0.000865063 0)
(0.00201435 0.000933657 0)
(0.00216414 0.0010024 0)
(0.00231392 0.00107122 0)
(0.00246368 0.00114011 0)
(0.00261343 0.00120903 0)
(0.00276318 0.00127798 0)
(0.00291293 0.00134695 0)
(0.00150363 0.000850463 0)
(0.0016479 0.000929983 0)
(0.00179195 0.00100986 0)
(0.00193591 0.00108996 0)
(0.00207982 0.00117021 0)
(0.00222371 0.00125054 0)
(0.00236759 0.00133093 0)
(0.00251147 0.00141135 0)
(0.00265535 0.00149181 0)
(0.00279923 0.0015723 0)
(0.00143339 0.00096684 0)
(0.00157093 0.00105751 0)
(0.00170824 0.00114846 0)
(0.00184545 0.0012396 0)
(0.0019826 0.00133086 0)
(0.00211972 0.0014222 0)
(0.00225684 0.00151361 0)
(0.00239396 0.00160505 0)
(0.00253108 0.00169652 0)
(0.00266821 0.00178802 0)
(0.00135424 0.00107719 0)
(0.00148417 0.00117848 0)
(0.00161388 0.00127997 0)
(0.00174349 0.0013816 0)
(0.00187304 0.00148332 0)
(0.00200256 0.00158513 0)
(0.00213208 0.00168699 0)
(0.0022616 0.00178889 0)
(0.00239112 0.00189082 0)
(0.00252064 0.00199278 0)
(0.00126667 0.00118083 0)
(0.00138816 0.00129214 0)
(0.00150945 0.00140355 0)
(0.00163065 0.00151506 0)
(0.00175181 0.00162664 0)
(0.00187294 0.00173828 0)
(0.00199406 0.00184998 0)
(0.00211517 0.00196172 0)
(0.00223629 0.00207348 0)
(0.00235741 0.00218527 0)
(0.00336706 0.000129202 0)
(0.0035323 0.000128568 0)
(0.0036975 0.000127933 0)
(0.00386269 0.000127296 0)
(0.00402786 0.000126656 0)
(0.00419302 0.000126012 0)
(0.00435816 0.000125366 0)
(0.0045233 0.000124716 0)
(0.00468844 0.000124064 0)
(0.00485359 0.000123408 0)
(0.00501873 0.000122748 0)
(0.00518389 0.000122085 0)
(0.00534906 0.000121417 0)
(0.00551425 0.000120744 0)
(0.00567946 0.000120066 0)
(0.0058447 0.000119381 0)
(0.00600999 0.000118691 0)
(0.00617533 0.000117996 0)
(0.00634071 0.000117302 0)
(0.00650615 0.000116617 0)
(0.00334745 0.00038684 0)
(0.00351368 0.000384975 0)
(0.00367989 0.000383108 0)
(0.00384608 0.000381235 0)
(0.00401226 0.000379353 0)
(0.00417843 0.000377462 0)
(0.00434459 0.000375562 0)
(0.00451074 0.000373654 0)
(0.00467689 0.000371737 0)
(0.00484305 0.00036981 0)
(0.00500921 0.000367873 0)
(0.00517538 0.000365924 0)
(0.00534156 0.000363962 0)
(0.00550776 0.000361985 0)
(0.00567398 0.000359991 0)
(0.00584024 0.000357978 0)
(0.00600654 0.000355948 0)
(0.00617288 0.000353904 0)
(0.00633927 0.000351857 0)
(0.00650572 0.000349816 0)
(0.00330837 0.000642177 0)
(0.00347658 0.000639193 0)
(0.00364479 0.000636207 0)
(0.00381299 0.000633213 0)
(0.00398118 0.000630207 0)
(0.00414936 0.000627188 0)
(0.00431753 0.000624154 0)
(0.00448571 0.000621107 0)
(0.00465388 0.000618046 0)
(0.00482206 0.000614969 0)
(0.00499024 0.000611876 0)
(0.00515843 0.000608765 0)
(0.00532663 0.000605631 0)
(0.00549485 0.000602472 0)
(0.00566309 0.000599285 0)
(0.00583136 0.000596065 0)
(0.00599967 0.000592815 0)
(0.00616803 0.000589538 0)
(0.00633644 0.00058625 0)
(0.0065049 0.00058296 0)
(0.00325002 0.000893693 0)
(0.00342121 0.000889776 0)
(0.0035924 0.000885861 0)
(0.00376359 0.000881939 0)
(0.00393478 0.000878003 0)
(0.00410597 0.000874051 0)
(0.00427716 0.000870081 0)
(0.00444835 0.000866094 0)
(0.00461954 0.000862089 0)
(0.00479073 0.000858064 0)
(0.00496193 0.000854017 0)
(0.00513314 0.000849944 0)
(0.00530436 0.000845842 0)
(0.00547559 0.000841705 0)
(0.00564684 0.000837526 0)
(0.00581812 0.000833301 0)
(0.00598944 0.000829029 0)
(0.0061608 0.000824715 0)
(0.00633222 0.000820377 0)
(0.0065037 0.000816022 0)
(0.00317272 0.00113989 0)
(0.00334786 0.0011353 0)
(0.003523 0.00113072 0)
(0.00369816 0.00112613 0)
(0.00387333 0.00112154 0)
(0.0040485 0.00111693 0)
(0.00422368 0.0011123 0)
(0.00439887 0.00110765 0)
(0.00457406 0.00110297 0)
(0.00474925 0.00109828 0)
(0.00492445 0.00109356 0)
(0.00509965 0.00108881 0)
(0.00527487 0.00108402 0)
(0.00545009 0.00107918 0)
(0.00562534 0.0010743 0)
(0.00580061 0.00106935 0)
(0.00597591 0.00106433 0)
(0.00615126 0.00105925 0)
(0.00632667 0.00105413 0)
(0.00650214 0.00104898 0)
(0.00307691 0.00137928 0)
(0.00325695 0.00137435 0)
(0.00343701 0.00136945 0)
(0.00361709 0.00136455 0)
(0.00379719 0.00135964 0)
(0.0039773 0.00135472 0)
(0.00415743 0.00134978 0)
(0.00433756 0.00134481 0)
(0.0045177 0.00133983 0)
(0.00469785 0.00133482 0)
(0.004878 0.00132978 0)
(0.00505816 0.0013247 0)
(0.00523833 0.00131959 0)
(0.00541851 0.00131442 0)
(0.00559871 0.00130918 0)
(0.00577893 0.00130386 0)
(0.00595918 0.00129846 0)
(0.00613947 0.00129297 0)
(0.00631981 0.00128742 0)
(0.00650022 0.00128181 0)
(0.00296314 0.00161044 0)
(0.00314901 0.00160559 0)
(0.00333491 0.00160077 0)
(0.00352084 0.00159597 0)
(0.0037068 0.00159117 0)
(0.00389277 0.00158635 0)
(0.00407877 0.00158152 0)
(0.00426478 0.00157667 0)
(0.0044508 0.0015718 0)
(0.00463683 0.0015669 0)
(0.00482287 0.00156197 0)
(0.00500891 0.001557 0)
(0.00519497 0.00155199 0)
(0.00538104 0.00154692 0)
(0.00556712 0.00154177 0)
(0.00575321 0.00153652 0)
(0.00593933 0.00153117 0)
(0.00612549 0.0015257 0)
(0.00631169 0.00152014 0)
(0.00649796 0.00151449 0)
(0.00283207 0.00183197 0)
(0.00302468 0.00182768 0)
(0.00321731 0.00182343 0)
(0.00340998 0.00181922 0)
(0.00360269 0.00181501 0)
(0.00379542 0.0018108 0)
(0.00398817 0.00180657 0)
(0.00418095 0.00180233 0)
(0.00437374 0.00179807 0)
(0.00456654 0.00179378 0)
(0.00475935 0.00178945 0)
(0.00495218 0.00178509 0)
(0.00514502 0.00178068 0)
(0.00533786 0.00177621 0)
(0.00553073 0.00177165 0)
(0.0057236 0.00176699 0)
(0.00591649 0.0017622 0)
(0.00610941 0.00175727 0)
(0.00630236 0.0017522 0)
(0.00649536 0.001747 0)
(0.00268447 0.00204252 0)
(0.00288468 0.00203936 0)
(0.00308492 0.00203625 0)
(0.00328519 0.00203317 0)
(0.00348549 0.00203012 0)
(0.00368583 0.00202707 0)
(0.00388619 0.00202401 0)
(0.00408657 0.00202094 0)
(0.00428698 0.00201785 0)
(0.0044874 0.00201473 0)
(0.00468784 0.00201158 0)
(0.0048883 0.00200839 0)
(0.00508877 0.00200515 0)
(0.00528925 0.00200185 0)
(0.00548975 0.00199846 0)
(0.00569026 0.00199495 0)
(0.00589079 0.00199131 0)
(0.00609132 0.0019875 0)
(0.00629187 0.00198352 0)
(0.00649247 0.00197933 0)
(0.00252123 0.00224082 0)
(0.00272987 0.00223943 0)
(0.00293853 0.00223808 0)
(0.00314721 0.00223677 0)
(0.00335592 0.00223549 0)
(0.00356467 0.00223422 0)
(0.00377344 0.00223296 0)
(0.00398224 0.00223168 0)
(0.00419107 0.00223039 0)
(0.00439992 0.00222908 0)
(0.00460878 0.00222773 0)
(0.00481767 0.00222634 0)
(0.00502658 0.0022249 0)
(0.0052355 0.0022234 0)
(0.00544445 0.00222181 0)
(0.00565341 0.0022201 0)
(0.00586238 0.00221825 0)
(0.00607136 0.00221623 0)
(0.00628034 0.00221398 0)
(0.00648935 0.00221145 0)
(0.00243658 0.00244265 0)
(0.00264964 0.00244232 0)
(0.00286269 0.00244202 0)
(0.00307576 0.00244176 0)
(0.00328885 0.00244151 0)
(0.00350197 0.00244129 0)
(0.00371511 0.00244107 0)
(0.00392829 0.00244084 0)
(0.00414149 0.0024406 0)
(0.00435472 0.00244034 0)
(0.00456797 0.00244004 0)
(0.00478125 0.0024397 0)
(0.00499455 0.00243932 0)
(0.00520787 0.00243887 0)
(0.00542122 0.00243833 0)
(0.00563459 0.00243768 0)
(0.00584797 0.00243689 0)
(0.00606136 0.00243593 0)
(0.00627474 0.00243475 0)
(0.00648813 0.00243324 0)
(0.00243707 0.00265611 0)
(0.00265018 0.00265579 0)
(0.00286327 0.00265549 0)
(0.00307638 0.00265521 0)
(0.00328951 0.00265495 0)
(0.00350266 0.0026547 0)
(0.00371583 0.00265445 0)
(0.00392903 0.0026542 0)
(0.00414226 0.00265393 0)
(0.00435552 0.00265364 0)
(0.0045688 0.00265331 0)
(0.00478211 0.00265295 0)
(0.00499544 0.00265254 0)
(0.0052088 0.00265206 0)
(0.00542219 0.0026515 0)
(0.00563559 0.00265084 0)
(0.00584901 0.00265005 0)
(0.00606243 0.00264911 0)
(0.00627584 0.00264796 0)
(0.00648922 0.0026465 0)
(0.00243759 0.00286954 0)
(0.00265072 0.00286922 0)
(0.00286386 0.00286892 0)
(0.003077 0.00286863 0)
(0.00329016 0.00286836 0)
(0.00350334 0.00286809 0)
(0.00371654 0.00286781 0)
(0.00392977 0.00286753 0)
(0.00414302 0.00286724 0)
(0.00435631 0.00286692 0)
(0.00456962 0.00286657 0)
(0.00478296 0.00286618 0)
(0.00499633 0.00286574 0)
(0.00520972 0.00286524 0)
(0.00542313 0.00286467 0)
(0.00563657 0.002864 0)
(0.00585002 0.00286322 0)
(0.00606346 0.00286231 0)
(0.00627688 0.00286123 0)
(0.00649025 0.0028599 0)
(0.00243811 0.00308293 0)
(0.00265127 0.00308262 0)
(0.00286443 0.00308232 0)
(0.0030776 0.00308203 0)
(0.00329079 0.00308174 0)
(0.003504 0.00308145 0)
(0.00371722 0.00308115 0)
(0.00393048 0.00308085 0)
(0.00414376 0.00308053 0)
(0.00435707 0.00308018 0)
(0.00457041 0.00307981 0)
(0.00478377 0.0030794 0)
(0.00499717 0.00307894 0)
(0.00521058 0.00307843 0)
(0.00542402 0.00307784 0)
(0.00563748 0.00307718 0)
(0.00585094 0.00307642 0)
(0.00606439 0.00307556 0)
(0.00627781 0.00307456 0)
(0.00649115 0.00307339 0)
(0.00243862 0.0032963 0)
(0.0026518 0.003296 0)
(0.00286499 0.0032957 0)
(0.00307818 0.0032954 0)
(0.00329139 0.0032951 0)
(0.00350462 0.00329479 0)
(0.00371787 0.00329448 0)
(0.00393115 0.00329415 0)
(0.00414445 0.00329381 0)
(0.00435778 0.00329344 0)
(0.00457114 0.00329304 0)
(0.00478453 0.00329261 0)
(0.00499794 0.00329214 0)
(0.00521138 0.00329161 0)
(0.00542483 0.00329103 0)
(0.0056383 0.00329038 0)
(0.00585176 0.00328965 0)
(0.00606521 0.00328885 0)
(0.00627861 0.00328795 0)
(0.00649194 0.00328695 0)
(0.00243911 0.00350966 0)
(0.00265231 0.00350937 0)
(0.00286551 0.00350907 0)
(0.00307873 0.00350876 0)
(0.00329196 0.00350845 0)
(0.00350521 0.00350813 0)
(0.00371848 0.00350779 0)
(0.00393177 0.00350745 0)
(0.00414509 0.00350708 0)
(0.00435844 0.00350669 0)
(0.00457182 0.00350627 0)
(0.00478522 0.00350582 0)
(0.00499865 0.00350534 0)
(0.0052121 0.00350481 0)
(0.00542556 0.00350423 0)
(0.00563902 0.0035036 0)
(0.00585248 0.00350292 0)
(0.00606591 0.00350218 0)
(0.00627929 0.00350139 0)
(0.0064926 0.00350054 0)
(0.00243955 0.003723 0)
(0.00265277 0.00372272 0)
(0.002866 0.00372242 0)
(0.00307923 0.00372211 0)
(0.00329248 0.00372178 0)
(0.00350574 0.00372145 0)
(0.00371903 0.0037211 0)
(0.00393234 0.00372073 0)
(0.00414568 0.00372034 0)
(0.00435904 0.00371993 0)
(0.00457243 0.0037195 0)
(0.00478584 0.00371904 0)
(0.00499927 0.00371854 0)
(0.00521273 0.00371802 0)
(0.00542618 0.00371745 0)
(0.00563964 0.00371685 0)
(0.00585309 0.00371622 0)
(0.00606651 0.00371555 0)
(0.00627987 0.00371486 0)
(0.00649317 0.00371416 0)
(0.00243995 0.00393633 0)
(0.00265319 0.00393606 0)
(0.00286643 0.00393576 0)
(0.00307968 0.00393545 0)
(0.00329295 0.00393512 0)
(0.00350623 0.00393477 0)
(0.00371953 0.0039344 0)
(0.00393285 0.00393401 0)
(0.0041462 0.00393361 0)
(0.00435957 0.00393318 0)
(0.00457297 0.00393273 0)
(0.00478638 0.00393226 0)
(0.00499982 0.00393176 0)
(0.00521327 0.00393124 0)
(0.00542673 0.00393069 0)
(0.00564018 0.00393012 0)
(0.00585361 0.00392954 0)
(0.00606701 0.00392895 0)
(0.00628037 0.00392836 0)
(0.00649365 0.00392777 0)
(0.00244029 0.00414965 0)
(0.00265355 0.00414939 0)
(0.00286682 0.0041491 0)
(0.00308008 0.00414878 0)
(0.00329336 0.00414844 0)
(0.00350665 0.00414808 0)
(0.00371997 0.0041477 0)
(0.0039333 0.0041473 0)
(0.00414665 0.00414687 0)
(0.00436003 0.00414643 0)
(0.00457344 0.00414597 0)
(0.00478686 0.00414549 0)
(0.00500029 0.00414499 0)
(0.00521374 0.00414448 0)
(0.00542719 0.00414395 0)
(0.00564063 0.00414342 0)
(0.00585405 0.00414289 0)
(0.00606744 0.00414237 0)
(0.00628079 0.00414186 0)
(0.00649407 0.00414139 0)
(0.00244058 0.00436296 0)
(0.00265387 0.00436271 0)
(0.00286715 0.00436243 0)
(0.00308043 0.00436211 0)
(0.00329372 0.00436177 0)
(0.00350703 0.0043614 0)
(0.00372035 0.004361 0)
(0.00393369 0.00436058 0)
(0.00414705 0.00436015 0)
(0.00436044 0.00435969 0)
(0.00457384 0.00435921 0)
(0.00478726 0.00435872 0)
(0.0050007 0.00435823 0)
(0.00521414 0.00435772 0)
(0.00542758 0.00435722 0)
(0.00564101 0.00435673 0)
(0.00585442 0.00435625 0)
(0.00606781 0.00435579 0)
(0.00628114 0.00435537 0)
(0.00649442 0.004355 0)
(0.00244083 0.00457627 0)
(0.00265413 0.00457604 0)
(0.00286743 0.00457576 0)
(0.00308073 0.00457544 0)
(0.00329403 0.00457509 0)
(0.00350735 0.00457471 0)
(0.00372068 0.00457431 0)
(0.00393403 0.00457388 0)
(0.00414739 0.00457342 0)
(0.00436078 0.00457295 0)
(0.00457418 0.00457246 0)
(0.0047876 0.00457197 0)
(0.00500104 0.00457147 0)
(0.00521447 0.00457098 0)
(0.00542791 0.00457051 0)
(0.00564133 0.00457005 0)
(0.00585474 0.00456962 0)
(0.00606811 0.00456922 0)
(0.00628144 0.00456887 0)
(0.00649473 0.00456859 0)
(0.00244103 0.00478958 0)
(0.00265435 0.00478936 0)
(0.00286766 0.00478908 0)
(0.00308098 0.00478877 0)
(0.0032943 0.00478842 0)
(0.00350762 0.00478803 0)
(0.00372096 0.00478762 0)
(0.00393432 0.00478717 0)
(0.00414769 0.0047867 0)
(0.00436107 0.00478622 0)
(0.00457448 0.00478572 0)
(0.00478789 0.00478522 0)
(0.00500132 0.00478473 0)
(0.00521475 0.00478425 0)
(0.00542818 0.00478379 0)
(0.0056416 0.00478337 0)
(0.005855 0.00478299 0)
(0.00606837 0.00478265 0)
(0.0062817 0.00478237 0)
(0.00649498 0.00478216 0)
(0.00244119 0.0050029 0)
(0.00265453 0.00500268 0)
(0.00286786 0.00500242 0)
(0.00308119 0.0050021 0)
(0.00329452 0.00500175 0)
(0.00350786 0.00500136 0)
(0.00372121 0.00500093 0)
(0.00393457 0.00500047 0)
(0.00414794 0.00499999 0)
(0.00436132 0.00499949 0)
(0.00457472 0.00499899 0)
(0.00478814 0.00499848 0)
(0.00500156 0.00499799 0)
(0.00521499 0.00499752 0)
(0.00542841 0.00499708 0)
(0.00564182 0.00499669 0)
(0.00585522 0.00499635 0)
(0.00606858 0.00499607 0)
(0.00628191 0.00499586 0)
(0.0064952 0.00499572 0)
(0.00244132 0.00521622 0)
(0.00265467 0.00521601 0)
(0.00286801 0.00521575 0)
(0.00308136 0.00521544 0)
(0.00329471 0.00521508 0)
(0.00350806 0.00521469 0)
(0.00372142 0.00521425 0)
(0.00393478 0.00521378 0)
(0.00414816 0.00521329 0)
(0.00436154 0.00521278 0)
(0.00457494 0.00521226 0)
(0.00478835 0.00521175 0)
(0.00500176 0.00521125 0)
(0.00521518 0.00521079 0)
(0.0054286 0.00521037 0)
(0.00564201 0.00521001 0)
(0.00585541 0.00520971 0)
(0.00606877 0.00520949 0)
(0.0062821 0.00520933 0)
(0.00649539 0.00520925 0)
(0.0024414 0.00542954 0)
(0.00265477 0.00542934 0)
(0.00286814 0.00542909 0)
(0.0030815 0.00542878 0)
(0.00329487 0.00542842 0)
(0.00350824 0.00542802 0)
(0.00372161 0.00542757 0)
(0.00393499 0.0054271 0)
(0.00414836 0.00542659 0)
(0.00436175 0.00542607 0)
(0.00457513 0.00542554 0)
(0.00478853 0.00542502 0)
(0.00500194 0.00542452 0)
(0.00521535 0.00542406 0)
(0.00542876 0.00542365 0)
(0.00564216 0.00542331 0)
(0.00585556 0.00542306 0)
(0.00606893 0.00542289 0)
(0.00628227 0.00542279 0)
(0.00649556 0.00542277 0)
(0.00244145 0.00564287 0)
(0.00265484 0.00564268 0)
(0.00286823 0.00564242 0)
(0.00308163 0.00564211 0)
(0.00329502 0.00564175 0)
(0.00350841 0.00564135 0)
(0.0037218 0.0056409 0)
(0.00393518 0.00564041 0)
(0.00414857 0.0056399 0)
(0.00436195 0.00563937 0)
(0.00457533 0.00563883 0)
(0.00478871 0.0056383 0)
(0.0050021 0.00563779 0)
(0.0052155 0.00563732 0)
(0.00542889 0.00563692 0)
(0.00564229 0.0056366 0)
(0.00585568 0.00563638 0)
(0.00606906 0.00563626 0)
(0.00628241 0.00563624 0)
(0.00649571 0.00563629 0)
(0.00244146 0.0058562 0)
(0.00265489 0.005856 0)
(0.00286832 0.00585575 0)
(0.00308175 0.00585544 0)
(0.00329518 0.00585508 0)
(0.0035086 0.00585467 0)
(0.003722 0.00585422 0)
(0.0039354 0.00585374 0)
(0.00414879 0.00585322 0)
(0.00436217 0.00585268 0)
(0.00457554 0.00585213 0)
(0.00478891 0.00585158 0)
(0.00500228 0.00585107 0)
(0.00521565 0.00585059 0)
(0.00542901 0.00585019 0)
(0.00564238 0.00584988 0)
(0.00585576 0.00584968 0)
(0.00606914 0.00584961 0)
(0.0062825 0.00584967 0)
(0.00649581 0.00584982 0)
(0.00244145 0.00606952 0)
(0.00265492 0.00606932 0)
(0.0028684 0.00606906 0)
(0.00308188 0.00606875 0)
(0.00329535 0.00606839 0)
(0.0035088 0.00606799 0)
(0.00372224 0.00606754 0)
(0.00393566 0.00606706 0)
(0.00414906 0.00606653 0)
(0.00436244 0.00606599 0)
(0.00457581 0.00606543 0)
(0.00478916 0.00606488 0)
(0.0050025 0.00606435 0)
(0.00521582 0.00606388 0)
(0.00542914 0.00606346 0)
(0.00564246 0.00606315 0)
(0.00585578 0.00606295 0)
(0.00606913 0.00606292 0)
(0.00628248 0.00606307 0)
(0.00649581 0.00606338 0)
(0.00244143 0.00628282 0)
(0.00265497 0.00628261 0)
(0.00286851 0.00628234 0)
(0.00308204 0.00628203 0)
(0.00329556 0.00628168 0)
(0.00350906 0.00628129 0)
(0.00372253 0.00628085 0)
(0.00393599 0.00628037 0)
(0.00414941 0.00627985 0)
(0.00436281 0.0062793 0)
(0.00457617 0.00627875 0)
(0.0047895 0.00627819 0)
(0.0050028 0.00627767 0)
(0.00521607 0.00627718 0)
(0.00542931 0.00627677 0)
(0.00564254 0.00627644 0)
(0.00585576 0.00627624 0)
(0.006069 0.00627621 0)
(0.00628228 0.00627642 0)
(0.00649559 0.00627696 0)
(0.00244147 0.00649609 0)
(0.00265508 0.00649586 0)
(0.00286867 0.0064956 0)
(0.00308226 0.00649529 0)
(0.00329583 0.00649495 0)
(0.00350938 0.00649457 0)
(0.00372291 0.00649414 0)
(0.00393641 0.00649367 0)
(0.00414988 0.00649316 0)
(0.0043633 0.00649262 0)
(0.00457666 0.00649207 0)
(0.00478998 0.00649152 0)
(0.00500323 0.006491 0)
(0.00521643 0.00649053 0)
(0.00542958 0.00649012 0)
(0.00564267 0.00648979 0)
(0.00585573 0.00648958 0)
(0.00606876 0.00648953 0)
(0.00628178 0.00648977 0)
(0.00649484 0.00649053 0)
(0.000129138 0.00338198 0)
(0.000386623 0.00336215 0)
(0.000641748 0.0033226 0)
(0.000892958 0.00326357 0)
(0.00113873 0.00318541 0)
(0.00137756 0.00308859 0)
(0.001608 0.0029737 0)
(0.00182868 0.00284144 0)
(0.00203826 0.00269264 0)
(0.00223551 0.00252824 0)
(0.00012853 0.00354714 0)
(0.000384837 0.00352832 0)
(0.000638905 0.00349081 0)
(0.000889254 0.00343481 0)
(0.00113443 0.00336066 0)
(0.00137302 0.00326882 0)
(0.00160365 0.00315984 0)
(0.001825 0.00303439 0)
(0.00203581 0.00289325 0)
(0.00223489 0.00273732 0)
(0.000127917 0.00371227 0)
(0.000383041 0.00369447 0)
(0.000636045 0.00365899 0)
(0.00088553 0.00360603 0)
(0.00113012 0.0035359 0)
(0.00136847 0.00344904 0)
(0.00159929 0.00334597 0)
(0.00182131 0.00322732 0)
(0.00203336 0.00309384 0)
(0.0022343 0.00294636 0)
(0.0001273 0.00387738 0)
(0.000381231 0.0038606 0)
(0.000633164 0.00382716 0)
(0.000881778 0.00377723 0)
(0.00112578 0.00371113 0)
(0.00136389 0.00362925 0)
(0.00159489 0.00353209 0)
(0.00181761 0.00342024 0)
(0.0020309 0.00329441 0)
(0.00223371 0.00315537 0)
(0.000126679 0.00404247 0)
(0.000379409 0.00402672 0)
(0.000630262 0.00399531 0)
(0.000877998 0.00394843 0)
(0.0011214 0.00388635 0)
(0.00135927 0.00380945 0)
(0.00159047 0.0037182 0)
(0.00181387 0.00361315 0)
(0.00202841 0.00349496 0)
(0.00223311 0.00336437 0)
(0.000126055 0.00420755 0)
(0.000377576 0.00419282 0)
(0.000627342 0.00416345 0)
(0.000874193 0.00411961 0)
(0.00111699 0.00406156 0)
(0.00135462 0.00398964 0)
(0.00158599 0.0039043 0)
(0.00181008 0.00380605 0)
(0.00202589 0.0036955 0)
(0.00223248 0.00357335 0)
(0.000125427 0.00437262 0)
(0.000375735 0.00435892 0)
(0.000624408 0.00433159 0)
(0.000870367 0.00429079 0)
(0.00111255 0.00423676 0)
(0.00134993 0.00416983 0)
(0.00158148 0.00409039 0)
(0.00180626 0.00399894 0)
(0.00202332 0.00389603 0)
(0.0022318 0.00378231 0)
(0.000124798 0.00453769 0)
(0.000373887 0.00452501 0)
(0.000621463 0.00449972 0)
(0.000866525 0.00446196 0)
(0.00110809 0.00441196 0)
(0.00134521 0.00435001 0)
(0.00157694 0.00427648 0)
(0.00180239 0.00419182 0)
(0.0020207 0.00409655 0)
(0.00223107 0.00399127 0)
(0.000124167 0.00470276 0)
(0.000372035 0.0046911 0)
(0.000618509 0.00466784 0)
(0.00086267 0.00463313 0)
(0.00110362 0.00458715 0)
(0.00134046 0.00453018 0)
(0.00157236 0.00446256 0)
(0.00179848 0.0043847 0)
(0.00201804 0.00429707 0)
(0.00223029 0.00420022 0)
(0.000123535 0.00486782 0)
(0.000370178 0.00485718 0)
(0.000615549 0.00483597 0)
(0.000858806 0.0048043 0)
(0.00109912 0.00476234 0)
(0.0013357 0.00471036 0)
(0.00156776 0.00464864 0)
(0.00179455 0.00457757 0)
(0.00201534 0.00449757 0)
(0.00222947 0.00440916 0)
(0.000122901 0.00503289 0)
(0.000368319 0.00502327 0)
(0.000612582 0.0050041 0)
(0.000854932 0.00497547 0)
(0.00109462 0.00493754 0)
(0.00133092 0.00489053 0)
(0.00156314 0.00483472 0)
(0.00179058 0.00477044 0)
(0.00201261 0.00469808 0)
(0.0022286 0.00461809 0)
(0.000122267 0.00519795 0)
(0.000366455 0.00518936 0)
(0.000609609 0.00517222 0)
(0.000851049 0.00514664 0)
(0.00109011 0.00511274 0)
(0.00132613 0.00507071 0)
(0.00155849 0.0050208 0)
(0.00178659 0.00496331 0)
(0.00200984 0.00489859 0)
(0.0022277 0.00482703 0)
(0.000121631 0.00536301 0)
(0.000364586 0.00535545 0)
(0.000606627 0.00534035 0)
(0.000847154 0.00531781 0)
(0.00108558 0.00528794 0)
(0.00132132 0.00525089 0)
(0.00155383 0.00520689 0)
(0.00178257 0.00515619 0)
(0.00200704 0.0050991 0)
(0.00222676 0.00503596 0)
(0.000120991 0.00552808 0)
(0.000362708 0.00552154 0)
(0.000603633 0.00550849 0)
(0.000843242 0.00548899 0)
(0.00108103 0.00546315 0)
(0.00131648 0.00543109 0)
(0.00154914 0.00539299 0)
(0.00177853 0.00534908 0)
(0.00200422 0.00529962 0)
(0.00222578 0.00524491 0)
(0.000120348 0.00569316 0)
(0.000360818 0.00568764 0)
(0.000600618 0.00567663 0)
(0.000839305 0.00566018 0)
(0.00107645 0.00563837 0)
(0.00131162 0.00561129 0)
(0.00154442 0.0055791 0)
(0.00177445 0.00554198 0)
(0.00200135 0.00550015 0)
(0.00222476 0.00545386 0)
(0.000119697 0.00585825 0)
(0.000358909 0.00585375 0)
(0.000597574 0.00584479 0)
(0.00083533 0.00583138 0)
(0.00107182 0.0058136 0)
(0.00130671 0.0057915 0)
(0.00153965 0.00576522 0)
(0.00177033 0.00573489 0)
(0.00199845 0.00570069 0)
(0.00222371 0.00566282 0)
(0.000119037 0.00602336 0)
(0.000356973 0.00601989 0)
(0.000594489 0.00601296 0)
(0.000831304 0.0060026 0)
(0.00106714 0.00598884 0)
(0.00130174 0.00597173 0)
(0.00153483 0.00595136 0)
(0.00176616 0.00592781 0)
(0.00199549 0.00590123 0)
(0.00222261 0.00587178 0)
(0.000118365 0.00618851 0)
(0.000355005 0.00618605 0)
(0.000591354 0.00618116 0)
(0.000827214 0.00617384 0)
(0.00106239 0.0061641 0)
(0.00129669 0.00615197 0)
(0.00152993 0.0061375 0)
(0.00176192 0.00612074 0)
(0.00199249 0.00610178 0)
(0.00222147 0.00608075 0)
(0.000117682 0.0063537 0)
(0.000353003 0.00635225 0)
(0.000588162 0.00634939 0)
(0.00082305 0.00634511 0)
(0.00105756 0.00633938 0)
(0.00129157 0.00633222 0)
(0.00152496 0.00632363 0)
(0.00175763 0.00631365 0)
(0.00198945 0.00630232 0)
(0.00222032 0.00628969 0)
(0.000116994 0.00651894 0)
(0.000350956 0.00651851 0)
(0.000584892 0.00651767 0)
(0.000818787 0.0065164 0)
(0.00105261 0.00651468 0)
(0.00128633 0.00651247 0)
(0.0015199 0.00650976 0)
(0.00175326 0.00650655 0)
(0.00198638 0.00650283 0)
(0.00221919 0.0064986 0)
)
;

boundaryField
{
    left
    {
        type            symmetryPlane;
    }
    right
    {
        type            tractionDisplacement;
        traction        uniform (10000 0 0);
        pressure        
        {
            type            uniform;
            value           0;
        }
        value           nonuniform List<vector> 
30
(
(0.00658896 0.000116601 2.44832e-21)
(0.00658904 0.000349733 -1.62811e-21)
(0.00658922 0.000582802 -9.05403e-25)
(0.00658951 0.000815782 2.44619e-21)
(0.00658993 0.00104865 -2.43619e-21)
(0.00659046 0.00128139 -5.5784e-24)
(0.0065911 0.00151397 -4.60888e-24)
(0.00659184 0.00174638 -1.51996e-23)
(0.0065927 0.00197856 1.61895e-21)
(0.00659371 0.00221055 1.63578e-23)
(0.00659481 0.00243228 -7.73929e-24)
(0.00659588 0.00264559 5.10636e-36)
(0.00659689 0.0028591 -5.53943e-24)
(0.00659778 0.00307272 -4.64959e-24)
(0.00659855 0.0032864 7.61892e-24)
(0.00659921 0.0035001 2.56118e-36)
(0.00659978 0.0037138 5.06252e-36)
(0.00660026 0.00392749 1.97496e-24)
(0.00660068 0.00414117 -1.52687e-24)
(0.00660104 0.00435483 2.54013e-36)
(0.00660134 0.00456848 -5.22751e-39)
(0.0066016 0.0047821 -3.10283e-39)
(0.00660182 0.00499569 0)
(0.00660202 0.00520924 2.54045e-36)
(0.00660219 0.00542278 5.08013e-36)
(0.00660234 0.00563633 2.53915e-36)
(0.00660244 0.0058499 -3.75814e-39)
(0.00660244 0.00606355 2.6166e-40)
(0.00660221 0.00627732 -2.51423e-24)
(0.00660149 0.00649129 0)
)
;
    }
    down
    {
        type            symmetryPlane;
    }
    up
    {
        type            tractionDisplacement;
        traction        uniform (0 0 0);
        pressure        
        {
            type            uniform;
            value           0;
        }
        value           nonuniform List<vector> 
30
(
(0.000116972 0.00660166 2.44566e-21)
(0.000350846 0.00660173 -2.44235e-21)
(0.000584708 0.00660189 2.43885e-21)
(0.000818557 0.00660211 8.14674e-22)
(0.00105236 0.00660236 -8.0826e-22)
(0.00128609 0.00660259 -8.1407e-22)
(0.00151968 0.00660278 1.11553e-24)
(0.00175309 0.00660291 -8.07241e-22)
(0.00198628 0.00660294 1.15388e-23)
(0.00221917 0.00660287 -1.58908e-21)
(0.00244153 0.00660271 -7.47176e-22)
(0.00265517 0.00660248 -5.96107e-25)
(0.00286878 0.00660222 -7.26933e-25)
(0.00308238 0.00660192 0)
(0.00329598 0.00660158 1.07635e-24)
(0.00350957 0.0066012 1.32038e-24)
(0.00372314 0.00660077 -1.58345e-24)
(0.00393668 0.0066003 -1.83461e-24)
(0.00415017 0.0065998 2.04253e-24)
(0.00436361 0.00659927 2.51137e-36)
(0.00457698 0.00659873 1.53205e-38)
(0.00479029 0.00659819 2.54118e-36)
(0.00500352 0.00659768 5.08386e-36)
(0.00521668 0.00659722 5.09623e-36)
(0.00542977 0.00659682 5.08485e-36)
(0.0056428 0.0065965 5.09109e-36)
(0.00585575 0.00659629 -1.53767e-25)
(0.00606863 0.00659624 0)
(0.00628141 0.00659647 0)
(0.00649409 0.00659721 0)
)
;
    }
    hole
    {
        type            tractionDisplacement;
        traction        uniform (0 0 0);
        pressure        
        {
            type            uniform;
            value           0;
        }
        value           nonuniform List<vector> 
20
(
(0.00111403 0.0012158 8.81019e-22)
(0.00101637 0.00129976 5.88944e-23)
(0.000912367 0.00137568 0)
(0.000802661 0.00144311 -2.62054e-22)
(0.000687917 0.00150167 -4.69322e-22)