/*--------------------------------*- C++ -*----------------------------------*\
  =========                 |
  \\      /  F ield         | OpenFOAM: The Open Source CFD Toolbox
   \\    /   O peration     | Website:  https://openfoam.org
    \\  /    A nd           | Version:  dev
     \\/     M anipulation  |
\*---------------------------------------------------------------------------*/
FoamFile
{
    version     2.0;
    format      ascii;
    class       volScalarField;
    location    "20";
    object      sigmaxx;
}
// * * * * * * * * * * * * * * * * * * * * * * * * * * * * * * * * * * * * * //

dimensions      [1 -1 -2 0 0 0 0];

internalField   nonuniform List<scalar> 
1000
(
-1.30321e+06
-1.26905e+06
-1.24483e+06
-1.20978e+06
-1.16549e+06
-1.11649e+06
-1.06413e+06
-1.00792e+06
-953816
-888041
-1.75707e+06
-1.44388e+06
-1.28801e+06
-1.19013e+06
-1.12147e+06
-1.06575e+06
-1.01913e+06
-973533
-924803
-878060
-2.10194e+06
-1.57623e+06
-1.31533e+06
-1.16828e+06
-1.07641e+06
-1.01216e+06
-963361
-918712
-869421
-823411
-2.32008e+06
-1.68372e+06
-1.359e+06
-1.17393e+06
-1.05885e+06
-979631
-920738
-867909
-810540
-757207
-2.38571e+06
-1.76951e+06
-1.42567e+06
-1.21699e+06
-1.07942e+06
-980596
-904095
-835632
-764927
-698950
-2.33249e+06
-1.83885e+06
-1.51523e+06
-1.29415e+06
-1.1355e+06
-1.01437e+06
-916264
-828025
-739916
-656771
-2.20271e+06
-1.88656e+06
-1.60788e+06
-1.3859e+06
-1.21119e+06
-1.06956e+06
-949567
-840654
-733831
-631663
-2.06269e+06
-1.90906e+06
-1.67719e+06
-1.46517e+06
-1.28344e+06
-1.12767e+06
-990040
-862838
-738928
-618916
-1.99119e+06
-1.89559e+06
-1.70737e+06
-1.51379e+06
-1.33473e+06
-1.17227e+06
-1.02303e+06
-883300
-746286
-612856
-2.0232e+06
-1.85891e+06
-1.70402e+06
-1.53499e+06
-1.36298e+06
-1.19878e+06
-1.04124e+06
-892745
-744598
-600882
305148
859831
1.03343e+06
992927
859431
697822
536427
382036
238412
101132
385382
789211
906151
842094
715485
569524
425712
288515
159600
32543.7
505559
617559
615104
534704
422906
307583
197960
94040.4
-5390.1
-113567
589151
353096
238445
137201
51139.9
-25291.7
-92038.8
-155106
-218353
-303437
617828
60244.1
-175166
-280121
-338800
-374363
-397884
-419757
-446058
-507502
536043
-216376
-531618
-650948
-686994
-689336
-675955
-662209
-656420
-696564
356851
-455446
-805574
-928738
-951283
-930967
-892283
-852516
-821933
-844593
68164.5
-665613
-993341
-1.10265e+06
-1.11512e+06
-1.08266e+06
-1.02926e+06
-972763
-924417
-931978
-337206
-874152
-1.11772e+06
-1.1934e+06
-1.19132e+06
-1.15072e+06
-1.09001e+06
-1.02368e+06
-960608
-946435
-806731
-1.06912e+06
-1.19093e+06
-1.2172e+06
-1.19661e+06
-1.15109e+06
-1.09012e+06
-1.02145e+06
-943210
-884831
-21448
-132932
-229146
-311172
-378958
-433820
-477349
-510498
-534646
-549034
-554301
-547387
-528354
-491126
-435455
-355970
-255348
-143960
-28223.9
84262.9
-80624
-179002
-260571
-331553
-391246
-440188
-479608
-509970
-532450
-546120
-551523
-545555
-527855
-493193
-439938
-363538
-266703
-159214
-45435
74213.7
-209684
-282207
-333676
-381025
-422840
-458711
-488922
-513182
-532035
-544315
-550115
-546529
-532490
-502543
-454642
-384411
-291863
-185570
-67849.1
64779.9
-379637
-419739
-432985
-449122
-466577
-484139
-500992
-516038
-528943
-538265
-543658
-542080
-532025
-508351
-467360
-403339
-315763
-210077
-87267.4
55045
-565163
-571500
-544691
-526490
-516252
-512309
-512855
-516030
-520583
-524805
-527781
-526876
-520229
-502192
-469023
-414114
-332795
-229060
-103485
44758.6
-740543
-717457
-654932
-603774
-565782
-539387
-522168
-511601
-505606
-502221
-500164
-497027
-491079
-477796
-452688
-407702
-338624
-243474
-119456
32402.1
-882391
-839694
-751509
-673227
-610622
-563134
-528304
-503160
-485033
-471692
-461487
-452609
-443551
-430521
-411305
-379486
-329025
-252556
-143961
12377.5
-970765
-922759
-823791
-729003
-648429
-583590
-532831
-493453
-462285
-437451
-416233
-398126
-380448
-363974
-344850
-324278
-293225
-250715
-167554
-14081
-987787
-947774
-857246
-762927
-675337
-600244
-536751
-484470
-440563
-402898
-369591
-338642
-310098
-281939
-258584
-237008
-224155
-205403
-145314
-20420.1
-941529
-918105
-852596
-772026
-688003
-607436
-534528
-470365
-414077
-363569
-317203
-272795
-230130
-188562
-151699
-122935
-109275
-92618.9
-63149
-9051.73
-739542
-762295
-749545
-703137
-640070
-570181
-500603
-434526
-372387
-314135
-257386
-202604
-146857
-93919.5
-42955.5
-4817.82
22895.2
29681
42065.5
21536.7
-665012
-647577
-636622
-601953
-550967
-490774
-426913
-362580
-299061
-236321
-173812
-110982
-47925.3
14168.9
71723.6
118330
146539
161174
136044
41279.3
-600598
-565019
-549794
-517660
-471613
-415732
-353866
-288915
-222427
-155072
-86904.8
-18207.6
50389.6
116898
177524
226105
255956
252460
198564
55706.1
-542788
-502064
-480668
-446483
-401079
-346447
-285038
-219090
-150276
-79658.8
-8053.78
63655.1
133926
200207
258105
301303
320541
306465
223092
50482.9
-488318
-445623
-421753
-385769
-339685
-284933
-223266
-156505
-86321.2
-14157.3
58594.1
130320
198763
260618
310972
343749
351074
315261
216237
41887.8
-430292
-393781
-368379
-331694
-285373
-230675
-169099
-102318
-32078.2
39843.8
111537
180751
244595
299150
339273
359031
350739
304177
196659
27662.3
-367938
-338922
-315593
-280584
-235666
-182237
-121873
-56329.9
12476
82453.8
151242
216079
273599
319535
348732
356258
337034
279355
171827
17717.8
-300361
-281807
-262081
-230583
-188805
-138186
-80476.9
-17611.3
48285
114837
179338
238661
289140
326410
345717
343110
314823
254791
151721
9687.46
-230518
-221538
-207289
-180907
-143742
-97372.3
-43733.7
15058.3
76704.3
138639
197933
251238
294754
324203
335301
325247
292540
231523
134053
5311.1
-161088
-161013
-152332
-131594
-99908.3
-58886.2
-10552.7
42897.4
99117
155491
209026
256291
293459
316375
321199
306002
270184
210422
121090
3400.25
-94425.2
-101480
-97782.6
-82464.1
-56614.8
-21737.3
20190.5
67095.8
116767
166744
214135
255592
287323
305238
305676
286965
249521
191984
107678
1455.05
-32338.3
-43436.4
-43275.5
-32709.4
-12733.3
15299
49698.9
88738.3
130620
173239
214056
249944
277252
291866
289948
269664
231249
173021
95762.4
1557.68
26953.4
13749.2
12698.8
19546.8
33669.6
54007.8
79465.8
108998
141473
175428
208842
239068
262729
275778
273959
254303
216018
159859
84275.5
220.775
85432.8
74627.8
73827.3
77769.2
85615.7
96899.5
111439
129281
150172
173508
197921
221506
241485
254212
255170
240303
206644
150453
79188.3
3851.34
150474
143275
145025
146538
147005
147105
148191
151547
158111
167918
180558
194862
209296
221288
227062
221629
198670
153238
82915.9
9242.42
229214
229193
233956
231729
222446
208515
193164
178966
167704
160052
156267
156217
159910
167049
176358
184568
183128
155908
98662.5
25509
334319
341435
347241
338018
315753
285261
250977
216382
183233
152832
125709
102985
86297.4
78502.2
83215.1
101691
127949
144212
115509
46570.1
475324
487942
487893
466913
429846
382482
328901
271601
212084
151613
91621.6
34210.3
-17272.4
-57241.9
-77133.1
-66658.4
-19699
48683.2
96229.5
76189.2
657537
665478
648684
613691
565564
506284
436164
355015
263676
163816
58475.3
-48471.9
-152197
-246054
-319835
-358008
-341850
-248312
-91720
60595.4
891473
847851
803697
766292
724921
668512
589544
484646
354324
202308
34716
-140747
-315796
-483175
-639005
-781861
-902247
-970232
-902382
-256921
-457593
-473432
-487128
-509888
-545210
-595238
-658334
-726894
-787492
-812202
-320329
-339053
-357842
-387191
-428201
-481086
-543737
-611701
-680113
-718934
-198528
-218178
-241638
-278528
-329115
-392481
-465596
-544439
-623553
-662605
-94175.8
-114185
-140639
-182314
-238828
-308516
-388005
-473534
-562460
-600236
-6948.97
-26074.5
-53729.6
-97339.8
-155968
-227675
-309278
-398474
-492142
-535280
66292.1
48299.4
20801.3
-22616.1
-80548.4
-150931
-230992
-318928
-414669
-462356
128250
111620
84906.8
42834
-12757.9
-79626.9
-155309
-239512
-332027
-384629
182103
166541
140719
100388
47806.5
-14564.4
-84525.7
-161868
-248322
-303091
229770
214762
189647
150941
101369
43709
-19817.3
-89777.6
-167147
-221451
272425
257598
232867
195421
148496
95219.3
37813.7
-23834.8
-91125.9
-143178
310023
294880
270395
234009
189424
140137
88583.4
34785.7
-22282
-70134.9
342034
326808
302443
266886
224392
178556
132368
86212.6
38745.7
-4818.7
365855
350155
326568
292827
253056
211143
170389
131085
92412.7
55372.5
376907
362782
341199
310868
275139
238189
202955
170642
141102
110658
368071
356128
340034
317019
289794
261225
234045
210128
190328
169858
327796
324985
319060
309231
296987
282975
268688
256007
247537
238632
245357
256043
267737
281496
296008
308780
317033
321146
326359
331705
104914
141624
180391
231016
288963
345603
391626
423105
444889
461695
-89502.1
-28634.8
49001.3
155855
278560
400031
504074
579178
625762
645059
-333381
-293482
-152515
46295.2
265286
478282
668098
821262
918569
930173
)
;

boundaryField
{
    left
    {
        type            symmetryPlane;
    }
    right
    {
        type            calculated;
        value           nonuniform List<scalar> 
30
(
134196
135626
133621
128920
121309
110583
96597.9
79836.2
59152.2
32161.3
3489.58
-22272
-42337.6
-55057.8
-61743.4
-64247.1
-64201.4
-62483.1
-59567.4
-55421
-50100.1
-43547.4
-36191.6
-28593.3
-21619.9
-15703.5
-10799.2
-6339.84
-1778.55
5638.03
)
;
    }
    down
    {
        type            symmetryPlane;
    }
    up
    {
        type            calculated;
        value           nonuniform List<scalar> 
30
(
-311349
-270615
-133880
58390.6
270605
477255
661082
808668
902159
914701
880744
841248
798722
760710
717943
660474
581271
477229
348778
199518
35276
-136549
-307955
-471845
-623759
-761137
-873907
-935018
-875848
-328651
)
;
    }
    hole
    {
        type            calculated;
        value           nonuniform List<scalar> 
20
(
-1.06193e+06
-1.59386e+06
-2.01561e+06
-2.29997e+06
-2.40919e+06
-2.37478e+06
-2.24248e+06
-2.08716e+06
-1.99976e+06
-2.02405e+06
-71964.7
53006
291847
555560
749447
801462
693859
432891
19209.7
-499037
)
;
    }
    frontAndBack
    {
        type            empty;
    }
}


// ************************************************************************* //
