/*--------------------------------*- C++ -*----------------------------------*\
  =========                 |
  \\      /  F ield         | OpenFOAM: The Open Source CFD Toolbox
   \\    /   O peration     | Website:  https://openfoam.org
    \\  /    A nd           | Version:  dev
     \\/     M anipulation  |
\*---------------------------------------------------------------------------*/
FoamFile
{
    version     2.0;
    format      ascii;
    class       volSymmTensorField;
    location    "20";
    object      sigma;
}
// * * * * * * * * * * * * * * * * * * * * * * * * * * * * * * * * * * * * * //

dimensions      [1 -1 -2 0 0 0 0];

internalField   nonuniform List<symmTensor> 
1000
(
(-1.30321e+06 1.11429e+06 6.44102e-10 -1.14631e+06 6.81559e-10 -5.08258e+08)
(-1.26905e+06 455211 4.33805e-09 -685883 4.66512e-09 -5.08143e+08)
(-1.24483e+06 158602 -3.5059e-09 -396362 -6.40729e-09 -5.08071e+08)
(-1.20978e+06 42839.7 -2.58348e-09 -187309 -2.78422e-09 -5.08015e+08)
(-1.16549e+06 7249.78 5.94483e-09 -39204.9 1.09568e-08 -5.0797e+08)
(-1.11649e+06 5382.92 3.00816e-09 62652.4 3.24588e-09 -5.07935e+08)
(-1.06413e+06 13649 -2.24881e-09 131868 5.56743e-09 -5.07907e+08)
(-1.00792e+06 23428 -5.01061e-10 177978 -6.196e-09 -5.07884e+08)
(-953816 34832.3 -6.83475e-09 203591 -3.81515e-09 -5.07865e+08)
(-888041 63958.1 0 205356 0 -5.0785e+08)
(-1.75707e+06 1.20342e+06 -3.29986e-09 -964796 2.68307e-09 -5.0832e+08)
(-1.44388e+06 556227 0 -759924 0 -5.08201e+08)
(-1.28801e+06 238681 2.71854e-09 -577816 -2.33628e-09 -5.08123e+08)
(-1.19013e+06 88695.2 -5.0368e-09 -406701 4.32868e-09 -5.08061e+08)
(-1.12147e+06 20757 -2.49613e-09 -264716 1.82502e-09 -5.08012e+08)
(-1.06575e+06 -7816.06 4.91195e-09 -153166 1.55262e-09 -5.07974e+08)
(-1.01913e+06 -17197.9 2.08025e-09 -70065.5 -1.7485e-09 -5.07944e+08)
(-973533 -13733.7 2.04099e-09 -10054.6 -7.74664e-09 -5.07919e+08)
(-924803 7551.2 0 24197.3 0 -5.079e+08)
(-878060 61389.2 0 23873.3 0 -5.07889e+08)
(-2.10194e+06 1.15082e+06 0 -708208 0 -5.08341e+08)
(-1.57623e+06 624949 0 -735883 0 -5.08226e+08)
(-1.31533e+06 336624 3.05137e-09 -662889 -1.87837e-09 -5.08149e+08)
(-1.16828e+06 175651 2.13189e-09 -540793 3.18134e-09 -5.08087e+08)
(-1.07641e+06 83964.3 3.27087e-11 -420540 4.88229e-11 -5.08038e+08)
(-1.01216e+06 32817.5 -4.79934e-09 -315427 -1.97134e-09 -5.07999e+08)
(-963361 8497.52 -3.97264e-10 -230312 -5.47448e-09 -5.07968e+08)
(-918712 7605.2 -2.19151e-09 -166384 1.32971e-09 -5.07943e+08)
(-869421 32419.7 2.79805e-09 -126964 4.17915e-09 -5.07922e+08)
(-823411 87933.8 7.12903e-10 -125660 2.63641e-09 -5.07911e+08)
(-2.32008e+06 999478 -1.647e-09 -451321 1.4102e-09 -5.08332e+08)
(-1.68372e+06 662437 -1.60397e-09 -638516 -2.85982e-09 -5.08228e+08)
(-1.359e+06 435890 -1.64281e-09 -647022 7.29828e-10 -5.08155e+08)
(-1.17393e+06 281275 1.78498e-09 -580235 3.17939e-09 -5.08097e+08)
(-1.05885e+06 176295 4.64319e-09 -493517 1.96153e-09 -5.08051e+08)
(-979631 108938 -2.55368e-09 -409337 1.3549e-09 -5.08013e+08)
(-920738 71994 -2.32886e-09 -335871 1.39852e-09 -5.07982e+08)
(-867909 64077.6 -5.59567e-09 -279250 3.1086e-09 -5.07957e+08)
(-810540 84297.7 -3.54091e-09 -243527 -3.83381e-09 -5.07936e+08)
(-757207 130586 2.67253e-09 -243690 1.61695e-09 -5.07923e+08)
(-2.38571e+06 786926 -2.13752e-09 -224252 4.39112e-10 -5.08295e+08)
(-1.76951e+06 659779 3.85676e-11 -479135 8.36327e-11 -5.08211e+08)
(-1.42567e+06 509639 -4.82365e-09 -546125 2.35895e-09 -5.08147e+08)
(-1.21699e+06 373471 -7.64757e-10 -527948 -1.65539e-09 -5.08095e+08)
(-1.07942e+06 266158 1.72281e-09 -483172 3.72871e-09 -5.08053e+08)
(-980596 190163 4.43184e-09 -430801 2.70271e-09 -5.08018e+08)
(-904095 144566 1.06699e-09 -381495 2.30927e-09 -5.07989e+08)
(-835632 128965 1.33382e-09 -342910 -3.21671e-09 -5.07964e+08)
(-764927 140074 -6.47134e-09 -319375 -1.11136e-08 -5.07943e+08)
(-698950 172604 -1.81225e-09 -326332 6.82917e-10 -5.07929e+08)
(-2.33249e+06 568786 -4.034e-09 -63712 1.34917e-09 -5.08245e+08)
(-1.83885e+06 610750 3.18661e-11 -293185 8.6427e-11 -5.08184e+08)
(-1.51523e+06 529245 -3.19156e-11 -379152 -8.64195e-11 -5.08129e+08)
(-1.29415e+06 420957 -6.32274e-10 -406930 -1.71082e-09 -5.08085e+08)
(-1.1355e+06 322578 -2.93808e-09 -406024 9.56479e-10 -5.08048e+08)
(-1.01437e+06 247852 -7.88556e-11 -392143 -2.13273e-10 -5.08017e+08)
(-916264 199293 2.50899e-09 -374079 -1.04197e-09 -5.0799e+08)
(-828025 177952 6.84129e-09 -360862 4.76483e-11 -5.07967e+08)
(-739916 179989 1.12025e-09 -357010 -4.61979e-10 -5.07945e+08)
(-656771 198477 -3.04506e-09 -376266 -1.60614e-09 -5.07931e+08)
(-2.20271e+06 375384 1.6622e-09 38876.2 -1.96374e-09 -5.08192e+08)
(-1.88656e+06 507519 -8.14579e-10 -104676 -2.89177e-09 -5.08152e+08)
(-1.60788e+06 480452 1.7159e-09 -195131 -5.06397e-10 -5.08108e+08)
(-1.3859e+06 404194 5.45952e-10 -255016 1.93295e-09 -5.08071e+08)
(-1.21119e+06 325507 4.13723e-09 -293068 3.28868e-09 -5.08039e+08)
(-1.06956e+06 261505 -3.9418e-09 -315990 -3.32493e-09 -5.08012e+08)
(-949567 217202 -2.48632e-09 -331003 -8.79386e-09 -5.07988e+08)
(-840654 194671 -2.49538e-09 -346504 5.83025e-10 -5.07966e+08)
(-733831 190057 1.34363e-09 -365984 4.74822e-09 -5.07946e+08)
(-631663 197339 -7.71429e-10 -401366 3.00258e-09 -5.07931e+08)
(-2.06269e+06 237637 6.2437e-09 77711.9 -1.33608e-09 -5.0815e+08)
(-1.90906e+06 363057 -3.84235e-09 32189.9 6.07418e-10 -5.08125e+08)
(-1.67719e+06 364720 -2.75271e-11 -37080.5 -1.38356e-10 -5.08088e+08)
(-1.46517e+06 322297 -7.48719e-10 -114174 -3.75955e-09 -5.08057e+08)
(-1.28344e+06 271190 6.84637e-09 -178764 2.767e-09 -5.0803e+08)
(-1.12767e+06 225416 7.85321e-10 -231296 3.93938e-09 -5.08006e+08)
(-990040 191733 3.6054e-11 -274756 1.80786e-10 -5.07984e+08)
(-862838 172488 -2.00433e-09 -316620 3.03706e-09 -5.07964e+08)
(-738928 165632 -4.73689e-10 -359838 -2.3728e-09 -5.07946e+08)
(-618916 166306 -2.31454e-10 -412005 -2.66017e-09 -5.0793e+08)
(-1.99119e+06 150336 4.35714e-09 82696.2 6.06674e-10 -5.08133e+08)
(-1.89559e+06 196747 -3.67148e-09 104348 2.0554e-09 -5.08106e+08)
(-1.70737e+06 208620 -3.9071e-10 55732.8 -3.30119e-09 -5.08073e+08)
(-1.51379e+06 195982 -6.65703e-10 -18682.8 -5.61904e-09 -5.08046e+08)
(-1.33473e+06 172079 5.0555e-10 -94498.4 4.26425e-09 -5.08022e+08)
(-1.17227e+06 148070 3.35502e-09 -163403 3.76216e-09 -5.08001e+08)
(-1.02303e+06 128537 -5.27673e-10 -227436 -4.44635e-09 -5.07981e+08)
(-883300 116967 5.08411e-09 -289347 -6.02782e-10 -5.07963e+08)
(-746286 112067 1.19702e-09 -351352 -1.89873e-10 -5.07946e+08)
(-612856 110132 1.58633e-09 -416404 8.09759e-09 -5.0793e+08)
(-2.0232e+06 68001.3 4.38372e-09 73036.8 1.88534e-09 -5.08142e+08)
(-1.85891e+06 49271.3 1.1424e-10 112813 2.9101e-09 -5.08095e+08)
(-1.70402e+06 51782.1 1.65242e-09 81480.2 -3.51135e-09 -5.08067e+08)
(-1.53499e+06 54217.2 -1.50629e-10 16680.6 -3.83078e-09 -5.08043e+08)
(-1.36298e+06 51563.2 7.24923e-12 -58359.3 1.84211e-10 -5.0802e+08)
(-1.19878e+06 48082.1 3.04707e-09 -134812 3.9711e-09 -5.08e+08)
(-1.04124e+06 44559.4 -1.83533e-10 -205694 -4.65833e-09 -5.0798e+08)
(-892745 42790.6 2.56121e-09 -277973 -1.70702e-11 -5.07962e+08)
(-744598 42527 1.98239e-10 -346230 5.0255e-09 -5.07944e+08)
(-600882 41961.8 5.01572e-11 -416246 2.76456e-09 -5.07927e+08)
(305148 -184987 1.35496e-09 3.26042e+06 4.37965e-09 -5.06869e+08)
(859831 -69131.8 3.00055e-09 1.85693e+06 1.15737e-10 -5.07065e+08)
(1.03343e+06 17753.5 -1.82561e-09 1.07912e+06 1.72623e-09 -5.07205e+08)
(992927 62253.6 0 642666 0 -5.07315e+08)
(859431 81097.9 -4.1092e-09 391693 -1.6074e-10 -5.07404e+08)
(697822 86905 -4.19054e-11 242614 2.89424e-09 -5.07475e+08)
(536427 86886.9 4.47679e-09 150636 1.75636e-10 -5.07534e+08)
(382036 84952.7 2.26792e-09 92052.3 2.65395e-09 -5.07583e+08)
(238412 83055.3 2.60894e-09 54974.3 -1.11067e-09 -5.07625e+08)
(101132 81965.8 2.69953e-10 32765.6 -3.44246e-09 -5.07661e+08)
(385382 -570494 7.93426e-11 3.0562e+06 4.32264e-09 -5.06898e+08)
(789211 31150.9 1.83756e-09 1.74556e+06 -1.75353e-09 -5.07107e+08)
(906151 293423 -1.90335e-09 1.09773e+06 1.58518e-09 -5.0723e+08)
(842094 394426 -1.81294e-09 725569 -2.13091e-10 -5.07331e+08)
(715485 422488 0 498244 0 -5.07412e+08)
(569524 418695 -2.21931e-10 351591 2.8877e-09 -5.0748e+08)
(425712 402610 4.63224e-09 253508 5.47431e-10 -5.07536e+08)
(288515 384548 1.69481e-11 185006 2.00388e-12 -5.07583e+08)
(159600 368784 -1.02722e-08 137510 -1.21565e-09 -5.07624e+08)
(32543.7 357847 1.58971e-10 102622 -1.49531e-09 -5.07661e+08)
(505559 -843791 -4.47226e-10 2.4904e+06 2.09701e-09 -5.07001e+08)
(617559 84634.8 1.90615e-09 1.5821e+06 -1.61801e-09 -5.07185e+08)
(615104 470249 3.21756e-10 1.10465e+06 -1.76659e-09 -5.07295e+08)
(534704 613983 -1.79044e-09 812132 -3.53772e-10 -5.07381e+08)
(422906 652695 0 616553 0 -5.07452e+08)
(307583 646859 -6.67676e-10 478475 2.81773e-09 -5.07511e+08)
(197960 624244 -9.41835e-10 377238 3.97002e-09 -5.0756e+08)
(94040.4 599066 2.81763e-09 300327 -2.05307e-09 -5.07601e+08)
(-5390.1 577121 3.01932e-12 242480 6.00149e-13 -5.07638e+08)
(-113567 562296 -2.95803e-09 194835 1.75661e-09 -5.07674e+08)
(589151 -930772 7.65462e-10 1.68586e+06 -4.22428e-09 -5.07167e+08)
(353096 103926 -1.49083e-09 1.34523e+06 -4.13138e-10 -5.073e+08)
(238445 544605 4.10047e-10 1.09798e+06 -1.74941e-09 -5.07384e+08)
(137201 712713 0 901175 0 -5.07453e+08)
(51139.9 763495 3.01324e-09 747126 4.05973e-09 -5.07508e+08)
(-25291.7 763100 6.37597e-09 622925 1.79344e-09 -5.07554e+08)
(-92038.8 743186 -4.26906e-09 521799 -1.20192e-09 -5.07593e+08)
(-155106 719763 -6.86588e-09 438163 -1.9343e-09 -5.07627e+08)
(-218353 699784 2.79544e-10 370574 -1.18055e-09 -5.07657e+08)
(-303437 687745 7.04768e-10 309157 -2.19081e-09 -5.07691e+08)
(617828 -820298 -1.12766e-09 835146 4.12135e-09 -5.07357e+08)
(60244.1 102656 2.17266e-09 1.04198e+06 2.8651e-09 -5.07438e+08)
(-175166 517586 -6.76974e-10 1.0303e+06 1.66365e-09 -5.07495e+08)
(-280121 693136 3.59794e-09 947358 1.31928e-09 -5.07538e+08)
(-338800 756201 5.52017e-11 845303 2.02836e-11 -5.07575e+08)
(-374363 768104 -3.0608e-09 744158 -4.20951e-09 -5.07607e+08)
(-397884 758842 2.14381e-10 650509 -1.36935e-09 -5.07634e+08)
(-419757 744597 0 566403 0 -5.07658e+08)
(-446058 733134 -5.35415e-09 494210 -6.81916e-10 -5.07681e+08)
(-507502 729312 2.7766e-10 422072 -1.02342e-09 -5.07712e+08)
(536043 -550998 -3.46233e-09 51029.7 5.48672e-09 -5.07557e+08)
(-216376 94337.8 -2.67647e-09 684597 -1.21605e-09 -5.07584e+08)
(-531618 424296 -2.2927e-09 887323 9.2543e-10 -5.0761e+08)
(-650948 581957 -1.65757e-09 915270 -7.59757e-10 -5.07631e+08)
(-686994 653234 1.16922e-09 874418 -2.86699e-09 -5.07649e+08)
(-689336 680032 2.6825e-09 806525 4.41804e-09 -5.07665e+08)
(-675955 686054 2.66057e-11 730844 1.22407e-11 -5.0768e+08)
(-662209 685082 -3.23002e-09 656074 1.33419e-09 -5.07694e+08)
(-656420 685201 2.7959e-12 587706 1.28741e-12 -5.07708e+08)
(-696564 691789 -1.11156e-09 511831 2.57618e-09 -5.07735e+08)
(356851 -186457 -9.65715e-10 -558655 -5.22236e-10 -5.07739e+08)
(-455446 116455 -5.34989e-11 317236 -2.95804e-11 -5.07724e+08)
(-805574 304719 -8.04662e-11 668302 -4.46981e-11 -5.07724e+08)
(-928738 423251 -3.31226e-09 794237 1.95789e-09 -5.07723e+08)
(-951283 493027 3.58658e-09 815494 2.00108e-09 -5.07724e+08)
(-930967 532183 -1.46239e-09 788796 2.49724e-09 -5.07725e+08)
(-892283 553148 2.79426e-09 740855 -4.66535e-09 -5.07727e+08)
(-852516 565273 1.48897e-11 685729 8.32459e-12 -5.07731e+08)
(-821933 575876 -1.56878e-09 631050 -2.26599e-09 -5.07736e+08)
(-844593 590450 -8.65722e-10 560832 1.70379e-09 -5.07758e+08)
(68164.5 210776 2.8338e-09 -982264 -5.77614e-09 -5.07903e+08)
(-665613 167317 -2.4523e-09 -32893.9 -1.62061e-09 -5.07854e+08)
(-993341 203077 1.48024e-09 400659 9.81892e-10 -5.07829e+08)
(-1.10265e+06 263739 -1.45382e-09 595484 -9.66553e-10 -5.07809e+08)
(-1.11512e+06 319818 1.53323e-10 671646 1.02079e-10 -5.07795e+08)
(-1.08266e+06 363169 -2.11134e-09 687551 -4.88338e-09 -5.07783e+08)
(-1.02926e+06 394177 -3.74876e-09 673371 -2.49946e-09 -5.07774e+08)
(-972763 415731 3.78696e-09 645488 2.52586e-09 -5.07768e+08)
(-924417 432033 2.16901e-09 612412 1.44713e-09 -5.07764e+08)
(-931978 448745 2.87978e-09 556880 5.39848e-10 -5.07779e+08)
(-337206 599500 4.62963e-09 -1.21713e+06 -4.50892e-09 -5.08051e+08)
(-874152 252484 4.86494e-09 -324865 1.32861e-09 -5.07969e+08)
(-1.11772e+06 143913 -7.24475e-11 113339 -5.67479e-11 -5.07924e+08)
(-1.1934e+06 138539 5.05632e-10 343750 -3.82424e-09 -5.07888e+08)
(-1.19132e+06 169083 1.99758e-09 460506 -2.36267e-09 -5.07861e+08)
(-1.15072e+06 205926 1.69077e-09 515177 -2.3502e-09 -5.07839e+08)
(-1.09001e+06 239018 3.83064e-09 534890 3.01323e-09 -5.0782e+08)
(-1.02368e+06 263149 -2.47201e-09 536961 2.94497e-09 -5.07805e+08)
(-960608 280870 -2.38483e-09 528669 -4.96123e-09 -5.07792e+08)
(-946435 296717 6.72878e-10 495052 -9.33375e-10 -5.07796e+08)
(-806731 904604 8.79056e-11 -1.23968e+06 7.87881e-11 -5.08165e+08)
(-1.06912e+06 348587 1.20734e-09 -529780 1.10763e-09 -5.08061e+08)
(-1.19093e+06 126299 -1.32969e-09 -150327 1.21193e-09 -5.08002e+08)
(-1.2172e+06 60479.1 5.18469e-10 78321.9 -8.54712e-09 -5.07955e+08)
(-1.19661e+06 59207.6 -4.32126e-11 216925 -3.98146e-11 -5.07918e+08)
(-1.15109e+06 80614.3 -2.17326e-09 298792 1.93006e-09 -5.07889e+08)
(-1.09012e+06 105690 3.20144e-09 347231 6.64916e-09 -5.07864e+08)
(-1.02145e+06 125096 -1.16764e-09 373742 6.65503e-10 -5.07842e+08)
(-943210 142183 -5.54888e-09 391405 -5.12089e-09 -5.0782e+08)
(-884831 158959 6.47521e-09 384842 4.47263e-09 -5.07808e+08)
(-21448 77259.7 5.58673e-09 24252.6 -1.14884e-09 -5.07692e+08)
(-132932 68492.5 1.84256e-10 17831.7 -2.26743e-09 -5.07719e+08)
(-229146 60305 -8.10439e-09 9734.74 -1.10811e-09 -5.07743e+08)
(-311172 52142.6 -2.71682e-09 -5776.59 1.05077e-11 -5.07765e+08)
(-378958 44788.4 -2.14589e-10 -32183 3.45464e-09 -5.07787e+08)
(-433820 37947.4 0 -70839.1 0 -5.07809e+08)
(-477349 32015.7 0 -122190 0 -5.07831e+08)
(-510498 26230.1 2.65191e-09 -186771 -1.0457e-11 -5.07853e+08)
(-534646 20766.7 6.44307e-11 -265046 -1.17544e-09 -5.07877e+08)
(-549034 14825.3 5.23977e-09 -358497 -2.08684e-11 -5.07902e+08)
(-554301 8521.07 1.67157e-10 -468390 -3.56206e-09 -5.07928e+08)
(-547387 1307.58 -6.95823e-11 -597290 1.19336e-09 -5.07956e+08)
(-528354 -6865.59 1.39898e-10 -746879 -3.59761e-09 -5.07987e+08)
(-491126 -16501.9 -7.73911e-09 -921106 3.16528e-11 -5.08018e+08)
(-435455 -27290 2.5293e-09 -1.1219e+06 1.20034e-09 -5.08052e+08)
(-355970 -38484.3 9.14313e-12 -1.35288e+06 -3.80353e-14 -5.08087e+08)
(-255348 -49172.5 -2.54036e-09 -1.61168e+06 1.06451e-11 -5.08123e+08)
(-143960 -55364.7 2.51831e-09 -1.89675e+06 -1.05806e-11 -5.08163e+08)
(-28223.9 -50936.2 -4.97815e-09 -2.18431e+06 -3.68071e-09 -5.08203e+08)
(84262.9 -29267.4 -2.50757e-09 -2.4428e+06 2.52257e-09 -5.08237e+08)
(-80624 335267 8.38084e-09 79417.1 -8.52873e-10 -5.07693e+08)
(-179002 300846 1.73164e-10 58747.6 -2.25754e-09 -5.0772e+08)
(-260571 270555 -2.63459e-09 41610.7 -1.10445e-09 -5.07743e+08)
(-331553 241753 8.36727e-09 19274 -2.39586e-09 -5.07764e+08)
(-391246 216452 1.06515e-10 -11807.4 1.12374e-09 -5.07785e+08)
(-440188 193913 -8.14385e-09 -52967.4 1.25753e-09 -5.07806e+08)
(-479608 174684 2.5601e-10 -105478 -2.34599e-09 -5.07827e+08)
(-509970 156726 0 -169294 0 -5.07849e+08)
(-532450 139925 5.43472e-11 -246110 -1.17293e-09 -5.07872e+08)
(-546120 122091 2.04968e-10 -336140 -2.38575e-09 -5.07896e+08)
(-551523 103135 2.91473e-09 -442442 -5.98583e-09 -5.07922e+08)
(-545555 81050.4 5.259e-11 -565660 -1.3713e-11 -5.07949e+08)
(-527855 55560.1 -2.53824e-09 -710572 -2.35277e-09 -5.07978e+08)
(-493193 25884 2.55085e-09 -878231 -3.04719e-11 -5.08009e+08)
(-439938 -8140.04 2.57587e-09 -1.07437e+06 -4.34086e-11 -5.08042e+08)
(-363538 -44442.7 -2.52544e-09 -1.29944e+06 3.07056e-11 -5.08076e+08)
(-266703 -78856.1 -2.52193e-09 -1.55556e+06 3.0892e-11 -5.08113e+08)
(-159214 -103349 -5.00163e-09 -1.8391e+06 6.15008e-11 -5.08153e+08)
(-45435 -113429 -4.1664e-11 -2.14022e+06 2.89632e-11 -5.08197e+08)
(74213.7 -113703 1.6551e-09 -2.4608e+06 3.63629e-09 -5.08243e+08)
(-209684 530411 2.69595e-09 155204 -4.78635e-11 -5.07705e+08)
(-282207 482934 2.65182e-10 118490 -1.14418e-09 -5.0773e+08)
(-333676 439674 -8.00602e-09 89900.5 1.42318e-10 -5.07749e+08)
(-381025 397634 2.23279e-09 57906.5 1.15159e-09 -5.07767e+08)
(-422840 359347 8.22235e-09 19635 -2.44477e-09 -5.07785e+08)
(-458711 325381 -7.99423e-09 -26211.6 1.30032e-09 -5.07804e+08)
(-488922 295589 -2.77546e-09 -80966.6 8.99764e-11 -5.07824e+08)
(-513182 268329 5.20386e-09 -144960 -9.45116e-11 -5.07844e+08)
(-532035 242171 -4.81537e-09 -219946 -2.31312e-09 -5.07866e+08)
(-544315 215006 -5.25786e-09 -306433 1.39635e-10 -5.07889e+08)
(-550115 185269 5.00062e-09 -407421 -4.86307e-11 -5.07913e+08)
(-546529 151040 7.58649e-09 -523993 -1.19026e-10 -5.07939e+08)
(-532490 110704 4.96371e-11 -661013 -2.257e-11 -5.07968e+08)
(-502543 62877.6 -2.52158e-09 -820320 4.75642e-11 -5.07998e+08)
(-454642 7678.22 2.47054e-09 -1.0083e+06 -2.6415e-11 -5.0803e+08)
(-384411 -51603 8.65077e-12 -1.22677e+06 -1.66305e-13 -5.08064e+08)
(-291863 -109181 -2.48596e-09 -1.4794e+06 4.8197e-11 -5.08101e+08)
(-185570 -153426 2.42767e-09 -1.76519e+06 1.21255e-09 -5.08142e+08)
(-67849.1 -180667 2.37344e-09 -2.0778e+06 6.22914e-09 -5.08187e+08)
(64779.9 -207673 9.21561e-13 -2.42195e+06 -1.39834e-11 -5.08236e+08)
(-379637 656339 0 250454 0 -5.07722e+08)
(-419739 609685 2.4911e-10 196204 -1.12874e-09 -5.07744e+08)
(-432985 565138 2.61048e-09 153668 -5.97582e-11 -5.07757e+08)
(-449122 518920 2.86874e-09 109473 -1.35005e-10 -5.07771e+08)
(-466577 474922 0 61800.9 0 -5.07786e+08)
(-484139 434874 -2.2796e-09 9555.32 -1.13683e-09 -5.07802e+08)
(-500992 399036 -2.94645e-09 -48484.1 2.41451e-09 -5.07819e+08)
(-516038 366002 -5.06681e-09 -113097 1.18281e-10 -5.07837e+08)
(-528943 334017 -3.82956e-10 -185944 1.28959e-09 -5.07857e+08)
(-538265 300678 4.72394e-09 -268000 2.29077e-09 -5.07878e+08)
(-543658 263808 2.20971e-09 -361994 2.36758e-09 -5.07901e+08)
(-542080 220673 4.10482e-10 -469544 -2.53885e-09 -5.07926e+08)
(-532025 168795 -2.0513e-09 -595498 -3.69247e-09 -5.07953e+08)
(-508351 106379 2.32044e-09 -742879 1.20858e-09 -5.07981e+08)
(-467360 32430.1 2.37023e-09 -918652 1.18474e-09 -5.08012e+08)
(-403339 -49457.7 -2.43598e-09 -1.12681e+06 6.04209e-11 -5.08045e+08)
(-315763 -131032 -7.63482e-12 -1.37319e+06 1.91307e-13 -5.08082e+08)
(-210077 -197798 7.22137e-09 -1.65881e+06 1.08159e-09 -5.08124e+08)
(-87267.4 -247519 -2.34803e-09 -1.97909e+06 -1.27636e-09 -5.08169e+08)
(55045 -306318 -2.41695e-09 -2.33966e+06 2.90547e-09 -5.0822e+08)
(-565163 707231 4.95083e-09 346017 2.01301e-09 -5.07743e+08)
(-571500 675560 -4.3977e-10 278185 1.15572e-09 -5.0776e+08)
(-544691 642079 -5.50614e-09 222152 1.3045e-09 -5.07767e+08)
(-526490 601878 2.61145e-09 165588 -1.15824e-09 -5.07776e+08)
(-516252 560312 6.21577e-09 107986 -3.73884e-09 -5.07787e+08)
(-512309 520463 -2.59128e-09 48699.7 1.01605e-10 -5.07799e+08)
(-512855 483653 0 -13196.3 0 -5.07814e+08)
(-516030 449028 2.46013e-09 -78829.3 -6.54604e-11 -5.0783e+08)
(-520583 415110 -6.75207e-10 -149677 3.64859e-09 -5.07847e+08)
(-524805 379368 -2.72048e-09 -227156 1.33346e-09 -5.07866e+08)
(-527781 339306 -4.33623e-09 -313530 -2.42649e-09 -5.07886e+08)
(-526876 291617 -4.76724e-09 -410949 -1.03455e-09 -5.07909e+08)
(-520229 232823 6.49369e-09 -523812 3.77659e-09 -5.07933e+08)
(-502192 159542 7.05206e-09 -656075 1.0669e-09 -5.0796e+08)
(-469023 69990.3 1.49167e-10 -815587 -1.31276e-09 -5.07989e+08)
(-414114 -32653.4 -2.24697e-09 -1.00844e+06 -1.25121e-09 -5.08021e+08)
(-332795 -139659 1.83263e-10 -1.24224e+06 -2.64611e-09 -5.08056e+08)
(-229060 -233054 7.31151e-11 -1.52139e+06 -1.32664e-09 -5.08096e+08)
(-103485 -310184 4.7475e-09 -1.8427e+06 -2.70952e-09 -5.08141e+08)
(44758.6 -406484 2.34561e-09 -2.21173e+06 9.20711e-10 -5.08192e+08)
(-740543 684795 2.77667e-09 424588 4.9761e-10 -5.07765e+08)
(-717457 679740 1.1237e-10 351815 -3.05533e-11 -5.07777e+08)
(-654932 668398 -2.87463e-09 285429 1.21379e-09 -5.07778e+08)
(-603774 644076 -8.1379e-09 218386 2.52777e-09 -5.07781e+08)
(-565782 612901 2.56464e-09 151850 -1.16597e-09 -5.07788e+08)
(-539387 579478 4.96035e-09 85992.7 -1.75714e-10 -5.07797e+08)
(-522168 546545 -2.40653e-09 20300.6 6.6164e-11 -5.07808e+08)
(-511601 514322 1.97394e-09 -46516.8 1.20883e-09 -5.07821e+08)
(-505606 482026 3.49162e-09 -115763 -3.93722e-09 -5.07836e+08)
(-502221 447386 -6.96856e-09 -189069 1.47121e-10 -5.07852e+08)
(-500164 407983 -2.49989e-09 -268298 1.66282e-10 -5.0787e+08)
(-497027 359876 1.11881e-08 -355640 2.23353e-09 -5.07889e+08)
(-491079 298855 1.34275e-09 -455045 6.39653e-09 -5.07911e+08)
(-477796 220131 -6.93177e-09 -570486 2.00156e-10 -5.07934e+08)
(-452688 119718 -2.15654e-09 -709905 -1.24487e-09 -5.07961e+08)
(-407702 -1029.58 -4.91416e-09 -880213 2.91126e-09 -5.0799e+08)
(-338624 -133408 -5.60296e-11 -1.09293e+06 8.39788e-11 -5.08023e+08)
(-243474 -257124 6.92386e-09 -1.35459e+06 -1.54324e-09 -5.08061e+08)
(-119456 -367245 2.24481e-09 -1.66882e+06 1.26704e-09 -5.08105e+08)
(32402.1 -504662 1.09327e-11 -2.03694e+06 -2.68195e-09 -5.08155e+08)
(-882391 599215 -2.73742e-09 472471 -5.77866e-10 -5.07787e+08)
(-839694 626890 2.2712e-09 406946 -2.84289e-11 -5.07792e+08)
(-751509 645426 6.52619e-10 335785 -1.18875e-09 -5.07788e+08)
(-673227 645003 -2.37481e-09 261950 6.134e-11 -5.07787e+08)
(-610622 631082 -9.32025e-10 188789 2.38791e-09 -5.0779e+08)
(-563134 609368 4.43236e-10 117807 -1.21499e-09 -5.07795e+08)
(-528304 584257 3.33109e-09 49081.4 -2.63402e-09 -5.07803e+08)
(-503160 557480 -5.90542e-09 -18739.2 3.99174e-09 -5.07813e+08)
(-485033 529384 -3.47734e-09 -86695.1 2.88976e-09 -5.07824e+08)
(-471692 498310 5.70629e-09 -156624 -4.10784e-09 -5.07837e+08)
(-461487 462259 -6.20374e-10 -229832 2.61396e-09 -5.07852e+08)
(-452609 417151 6.68588e-09 -308602 -1.79352e-10 -5.07868e+08)
(-443551 358350 2.86075e-09 -395628 -2.84965e-09 -5.07886e+08)
(-430521 279318 -6.39202e-09 -494514 -1.22244e-09 -5.07906e+08)
(-411305 174218 3.73608e-09 -612001 4.11875e-09 -5.07928e+08)
(-379486 41125.7 1.12542e-10 -754359 -1.5919e-10 -5.07954e+08)
(-329025 -113945 -6.85213e-09 -933981 2.94124e-09 -5.07984e+08)
(-252556 -269939 2.20206e-09 -1.16161e+06 -6.52395e-11 -5.08019e+08)
(-143961 -419198 2.26199e-09 -1.45575e+06 -1.48975e-09 -5.08061e+08)
(12377.5 -598980 7.77588e-12 -1.8181e+06 -1.41946e-09 -5.08109e+08)
(-970765 469588 1.41363e-10 480979 -3.11302e-11 -5.07805e+08)
(-922759 528989 -2.16449e-09 435351 1.48807e-11 -5.07805e+08)
(-823791 581012 -1.69842e-09 367748 -1.10097e-09 -5.07798e+08)
(-729003 609496 0 292449 0 -5.07793e+08)
(-648429 618516 0 216133 0 -5.07792e+08)
(-583590 612549 -5.07519e-09 142138 1.38592e-09 -5.07794e+08)
(-532831 598661 6.30901e-09 71490.1 -2.64125e-11 -5.07799e+08)
(-493453 579443 1.177e-08 2790.34 -1.71313e-09 -5.07806e+08)
(-462285 557445 -1.03189e-08 -63735 -8.34895e-11 -5.07814e+08)
(-437451 531429 -7.20271e-09 -131890 1.67665e-09 -5.07824e+08)
(-416233 500462 4.30165e-09 -199738 -9.68621e-11 -5.07834e+08)
(-398126 460491 1.7155e-09 -273530 1.38969e-09 -5.07847e+08)
(-380448 406929 9.8028e-10 -349435 -4.22645e-09 -5.07861e+08)
(-363974 332502 5.11722e-09 -437512 -4.43353e-09 -5.07877e+08)
(-344850 229221 1.50318e-10 -531378 -1.94063e-10 -5.07895e+08)
(-324278 92354.8 -5.36385e-09 -647590 -7.07805e-09 -5.07917e+08)
(-293225 -76406.3 0 -777584 0 -5.07939e+08)
(-250715 -261199 -2.34215e-10 -959884 2.97237e-09 -5.07972e+08)
(-167554 -453978 5.73858e-11 -1.19252e+06 -1.436e-09 -5.08006e+08)
(-14081 -692752 2.63534e-11 -1.56795e+06 -4.38531e-09 -5.08057e+08)
(-987787 324836 -1.57218e-10 445611 3.13663e-11 -5.07817e+08)
(-947774 412199 7.36677e-10 431245 -1.11383e-09 -5.07812e+08)
(-857246 494475 -8.65178e-10 376635 1.1928e-09 -5.07803e+08)
(-762927 554052 -8.36436e-10 306617 1.23413e-09 -5.07798e+08)
(-675337 588417 3.73573e-09 231852 -2.58175e-09 -5.07795e+08)
(-600244 602816 1.69814e-09 156825 -2.68814e-09 -5.07795e+08)
(-536751 602856 -3.31806e-09 84459.5 2.60661e-09 -5.07797e+08)
(-484470 594569 -3.11498e-09 15927.8 -2.50459e-09 -5.078e+08)
(-440563 580268 1.46502e-09 -51419.9 3.31762e-10 -5.07806e+08)
(-402898 561543 3.24807e-09 -116472 2.61161e-09 -5.07812e+08)
(-369591 536833 -1.63843e-09 -184137 4.43544e-09 -5.0782e+08)
(-338642 504043 9.28981e-11 -251337 -7.83247e-11 -5.07828e+08)
(-310098 457627 -5.69458e-09 -325584 -1.34503e-09 -5.07839e+08)
(-281939 391697 -1.33327e-10 -399143 1.53036e-10 -5.07849e+08)
(-258584 296278 4.95243e-10 -483941 -2.8758e-09 -5.07864e+08)
(-237008 166745 -8.16265e-11 -562382 1.40003e-10 -5.07877e+08)
(-224155 -3685.21 7.8782e-09 -656448 1.40735e-09 -5.07896e+08)
(-205403 -201250 -1.02504e-10 -750094 1.43726e-09 -5.07913e+08)
(-145314 -439101 -8.20878e-09 -917363 1.71408e-09 -5.07938e+08)
(-20420.1 -786847 -1.3681e-09 -1.26281e+06 1.78375e-09 -5.07988e+08)
(-941529 191833 2.71059e-11 350535 3.95154e-10 -5.07829e+08)
(-918105 300080 -6.4168e-10 355458 1.5177e-09 -5.07822e+08)
(-852596 403029 1.85926e-09 327212 -4.12523e-10 -5.07814e+08)
(-772026 487697 -6.39986e-09 280252 -3.4056e-10 -5.07806e+08)
(-688003 548324 -5.64624e-09 219098 7.53154e-10 -5.07801e+08)
(-607436 586021 4.76517e-09 150329 9.85606e-10 -5.07798e+08)
(-534528 605273 5.52782e-09 80557.7 1.5935e-09 -5.07797e+08)
(-470365 611304 5.65301e-09 11588.8 -3.31105e-10 -5.07798e+08)
(-414077 608770 -3.85445e-09 -55284.2 1.96829e-09 -5.07801e+08)
(-363569 599092 1.62114e-10 -121418 2.56908e-10 -5.07804e+08)
(-317203 583465 -5.68969e-10 -187666 -7.18946e-10 -5.07809e+08)
(-272795 558424 -5.58784e-09 -255213 2.63546e-10 -5.07814e+08)
(-230130 522011 0 -324833 0 -5.0782e+08)
(-188562 465122 9.43395e-10 -394945 4.77471e-09 -5.07827e+08)
(-151699 383417 -1.2196e-10 -464210 -1.93763e-10 -5.07834e+08)
(-122935 265580 -6.61556e-10 -522184 4.8585e-09 -5.07841e+08)
(-109275 111144 1.84096e-09 -567862 -2.05033e-10 -5.07849e+08)
(-92618.9 -89146.7 2.16528e-10 -590780 -3.32031e-09 -5.0785e+08)
(-63149 -376569 -3.27616e-11 -665354 -1.92514e-10 -5.0786e+08)
(-9051.73 -843352 -2.45256e-11 -857972 2.91511e-09 -5.07892e+08)
(-739542 177674 2.46658e-09 277321 8.30561e-11 -5.07799e+08)
(-762295 265295 -6.67205e-10 281186 1.68695e-09 -5.07803e+08)
(-749545 357762 -1.12373e-09 266804 6.9519e-11 -5.07804e+08)
(-703137 440617 5.93624e-10 232562 -1.70279e-09 -5.07801e+08)
(-640070 507770 6.52416e-10 179916 5.1776e-09 -5.07798e+08)
(-570181 555375 1.9794e-10 116190 3.37474e-09 -5.07797e+08)
(-500603 586155 -2.24096e-09 48467.5 1.7177e-09 -5.07797e+08)
(-434526 602857 -1.31728e-09 -20425.3 -1.71538e-09 -5.07797e+08)
(-372387 609657 2.9755e-09 -87149.1 -5.1541e-09 -5.07798e+08)
(-314135 608235 -3.73594e-10 -154720 -4.53714e-11 -5.07801e+08)
(-257386 599292 9.94435e-10 -219725 -3.37786e-09 -5.07802e+08)
(-202604 581187 -2.98618e-10 -288170 -5.22239e-11 -5.07806e+08)
(-146857 550297 0 -352042 0 -5.07807e+08)
(-93919.5 501514 -2.17334e-10 -419067 1.69555e-09 -5.07811e+08)
(-42955.5 428026 1.80869e-10 -470602 -1.68698e-09 -5.07811e+08)
(-4817.82 325037 -1.53153e-10 -513840 -8.29419e-11 -5.07812e+08)
(22895.2 184626 -1.65218e-09 -513716 -1.65882e-09 -5.07806e+08)
(29681 -8377.71 8.39672e-11 -492711 1.06315e-10 -5.07799e+08)
(42065.5 -305587 5.05165e-11 -438702 1.19864e-10 -5.07784e+08)
(21536.7 -829865 5.61557e-12 -406062 1.34535e-10 -5.07781e+08)
(-665012 216449 1.68125e-09 155339 -6.75234e-10 -5.0781e+08)
(-647577 275207 0 182780 0 -5.078e+08)
(-636622 346281 -1.75956e-09 185111 2.39895e-12 -5.07797e+08)
(-601953 414696 2.96776e-23 166013 -6.09113e-24 -5.07793e+08)
(-550967 473021 -3.15122e-24 126715 -1.21261e-23 -5.0779e+08)
(-490774 517848 1.24426e-23 72993.2 -2.34892e-23 -5.07789e+08)
(-426913 549124 2.43881e-23 11324.5 -1.21317e-23 -5.07788e+08)
(-362580 568630 -1.76049e-09 -53556.7 2.16314e-12 -5.07788e+08)
(-299061 578479 0 -119037 0 -5.07789e+08)
(-236321 579987 1.76093e-09 -184030 -2.53944e-12 -5.07789e+08)
(-173812 573182 -1.82104e-23 -248134 -6.81321e-24 -5.0779e+08)
(-110982 556505 -1.76136e-09 -310658 3.20262e-12 -5.0779e+08)
(-47925.3 526836 1.76158e-09 -370084 -3.67817e-12 -5.07789e+08)
(14168.9 479531 1.20748e-23 -422560 -1.2122e-23 -5.07787e+08)
(71723.6 409882 -1.76197e-09 -461996 5.04924e-12 -5.07782e+08)
(118330 314103 -1.21043e-23 -477354 2.36556e-25 -5.07775e+08)
(146539 186081 1.76217e-09 -453878 -7.14319e-12 -5.07763e+08)
(161174 6505.22 1.76214e-09 -371550 -8.625e-12 -5.07741e+08)
(136044 -277376 -1.21365e-23 -231904 -6.37683e-24 -5.07714e+08)
(41279.3 -756182 -4.03139e-24 22249.3 -6.35728e-24 -5.07678e+08)
(-600598 249867 1.76404e-09 70128.1 1.75953e-09 -5.07815e+08)
(-565019 285838 4.51298e-12 103311 1.76214e-09 -5.07799e+08)
(-549794 337539 -1.75508e-09 107777 1.76457e-09 -5.07794e+08)
(-517660 389454 0 94879.9 0 -5.0779e+08)
(-471613 435540 1.76539e-09 64794.1 1.7597e-09 -5.07786e+08)
(-415732 472560 1.77134e-09 20942.8 3.52135e-09 -5.07783e+08)
(-353866 499527 -1.75474e-09 -32016.1 1.76389e-09 -5.07781e+08)
(-288915 516886 -1.74878e-09 -89955.7 3.52519e-09 -5.0778e+08)
(-222427 525556 1.76094e-09 -149788 -2.53774e-12 -5.07778e+08)
(-155072 526071 1.28149e-11 -209619 3.52195e-09 -5.07776e+08)
(-86904.8 518009 6.63771e-12 -267650 1.76077e-09 -5.07774e+08)
(-18207.6 499807 1.37495e-11 -322262 3.52113e-09 -5.07771e+08)
(50389.6 468579 1.42302e-11 -370264 3.52077e-09 -5.07766e+08)
(116898 420513 7.35242e-12 -407305 1.76023e-09 -5.07759e+08)
(177524 351911 1.51559e-11 -425584 3.52027e-09 -5.0775e+08)
(226105 260951 1.55641e-11 -414568 3.52025e-09 -5.07736e+08)
(255956 142738 -1.76238e-09 -357780 6.96526e-12 -5.07716e+08)
(252460 -22078.4 8.08429e-12 -236575 1.76058e-09 -5.07689e+08)
(198564 -266611 8.11772e-12 -16033 1.76121e-09 -5.0765e+08)
(55706.1 -642235 -7.99828e-13 380811 1.76238e-09 -5.07592e+08)
(-542788 262459 6.79225e-09 6427.59 -2.40747e-09 -5.07816e+08)
(-502064 283026 -4.4648e-12 43704.5 -1.76193e-09 -5.07798e+08)
(-480668 318778 -3.51551e-09 50275.6 1.76685e-09 -5.07792e+08)
(-446483 355840 5.93574e-23 40917.6 -1.82369e-23 -5.07786e+08)
(-401079 389309 3.52575e-09 16528.8 1.75699e-09 -5.07781e+08)
(-346447 416681 0 -20550 0 -5.07777e+08)