/*--------------------------------*- C++ -*----------------------------------*\
  =========                 |
  \\      /  F ield         | OpenFOAM: The Open Source CFD Toolbox
   \\    /   O peration     | Website:  https://openfoam.org
    \\  /    A nd           | Version:  dev
     \\/     M anipulation  |
\*---------------------------------------------------------------------------*/
FoamFile
{
    version     2.0;
    format      ascii;
    class       volScalarField;
    location    "20";
    object      sigmaxy;
}
// * * * * * * * * * * * * * * * * * * * * * * * * * * * * * * * * * * * * * //

dimensions      [1 -1 -2 0 0 0 0];

internalField   nonuniform List<scalar> 
1000
(
1.11429e+06
455211
158602
42839.7
7249.78
5382.92
13649
23428
34832.3
63958.1
1.20342e+06
556227
238681
88695.2
20757
-7816.06
-17197.9
-13733.7
7551.2
61389.2
1.15082e+06
624949
336624
175651
83964.3
32817.5
8497.52
7605.2
32419.7
87933.8
999478
662437
435890
281275
176295
108938
71994
64077.6
84297.7
130586
786926
659779
509639
373471
266158
190163
144566
128965
140074
172604
568786
610750
529245
420957
322578
247852
199293
177952
179989
198477
375384
507519
480452
404194
325507
261505
217202
194671
190057
197339
237637
363057
364720
322297
271190
225416
191733
172488
165632
166306
150336
196747
208620
195982
172079
148070
128537
116967
112067
110132
68001.3
49271.3
51782.1
54217.2
51563.2
48082.1
44559.4
42790.6
42527
41961.8
-184987
-69131.8
17753.5
62253.6
81097.9
86905
86886.9
84952.7
83055.3
81965.8
-570494
31150.9
293423
394426
422488
418695
402610
384548
368784
357847
-843791
84634.8
470249
613983
652695
646859
624244
599066
577121
562296
-930772
103926
544605
712713
763495
763100
743186
719763
699784
687745
-820298
102656
517586
693136
756201
768104
758842
744597
733134
729312
-550998
94337.8
424296
581957
653234
680032
686054
685082
685201
691789
-186457
116455
304719
423251
493027
532183
553148
565273
575876
590450
210776
167317
203077
263739
319818
363169
394177
415731
432033
448745
599500
252484
143913
138539
169083
205926
239018
263149
280870
296717
904604
348587
126299
60479.1
59207.6
80614.3
105690
125096
142183
158959
77259.7
68492.5
60305
52142.6
44788.4
37947.4
32015.7
26230.1
20766.7
14825.3
8521.07
1307.58
-6865.59
-16501.9
-27290
-38484.3
-49172.5
-55364.7
-50936.2
-29267.4
335267
300846
270555
241753
216452
193913
174684
156726
139925
122091
103135
81050.4
55560.1
25884
-8140.04
-44442.7
-78856.1
-103349
-113429
-113703
530411
482934
439674
397634
359347
325381
295589
268329
242171
215006
185269
151040
110704
62877.6
7678.22
-51603
-109181
-153426
-180667
-207673
656339
609685
565138
518920
474922
434874
399036
366002
334017
300678
263808
220673
168795
106379
32430.1
-49457.7
-131032
-197798
-247519
-306318
707231
675560
642079
601878
560312
520463
483653
449028
415110
379368
339306
291617
232823
159542
69990.3
-32653.4
-139659
-233054
-310184
-406484
684795
679740
668398
644076
612901
579478
546545
514322
482026
447386
407983
359876
298855
220131
119718
-1029.58
-133408
-257124
-367245
-504662
599215
626890
645426
645003
631082
609368
584257
557480
529384
498310
462259
417151
358350
279318
174218
41125.7
-113945
-269939
-419198
-598980
469588
528989
581012
609496
618516
612549
598661
579443
557445
531429
500462
460491
406929
332502
229221
92354.8
-76406.3
-261199
-453978
-692752
324836
412199
494475
554052
588417
602816
602856
594569
580268
561543
536833
504043
457627
391697
296278
166745
-3685.21
-201250
-439101
-786847
191833
300080
403029
487697
548324
586021
605273
611304
608770
599092
583465
558424
522011
465122
383417
265580
111144
-89146.7
-376569
-843352
177674
265295
357762
440617
507770
555375
586155
602857
609657
608235
599292
581187
550297
501514
428026
325037
184626
-8377.71
-305587
-829865
216449
275207
346281
414696
473021
517848
549124
568630
578479
579987
573182
556505
526836
479531
409882
314103
186081
6505.22
-277376
-756182
249867
285838
337539
389454
435540
472560
499527
516886
525556
526071
518009
499807
468579
420513
351911
260951
142738
-22078.4
-266611
-642235
262459
283026
318778
355840
389309
416681
436697
449087
453923
451116
439907
418718
385028
335729
268275
181964
74264.1
-65267.3
-259461
-522456
253381
261982
285571
310578
332981
350894
363255
369533
369393
362378
347578
323527
288158
239091
174922
96929.7
5448.54
-107978
-247041
-407965
225537
225727
239547
254814
267914
277367
282409
282557
277400
266385
248651
222988
187864
141815
84612.1
18476.9
-54197.3
-133653
-223306
-310218
184827
178512
184315
191445
196596
198623
197058
191632
182058
167907
148538
123115
90728.8
50699.2
3756.52
-46503
-96231.1
-146910
-192717
-222801
138256
126277
124547
124145
122080
117427
109979
99720.1
86603.3
70460.9
50975.6
27762.9
484.474
-30777.5
-64605
-97527.3
-125554
-145332
-156331
-148016
91473.8
73521.9
64281.6
56472.9
47506.1
36658.3
23936.9
9567.57
-6213.23
-23251.9
-41460.3
-60759.9
-80955.9
-101518
-120827
-135352
-141394
-138545
-119940
-77872.7
48279.3
23865.5
6722.22
-8560.6
-24230.8
-40862
-58315.3
-76156.9
-93878.4
-110957
-126873
-141073
-152927
-161570
-165490
-162411
-149929
-124314
-82712.9
-15213
9835.67
-21375
-46263.3
-68724.5
-90629.4
-112481
-134072
-154833
-173985
-190630
-203768
-212344
-215292
-211593
-200160
-179664
-149058
-107769
-47078.5
44342.8
-24014.4
-61839.5
-93748.6
-122484
-149638
-175777
-200750
-223895
-244196
-260337
-270805
-273980
-268302
-252493
-225793
-188574
-141973
-84086.2
-9629.59
95770
-55676.9
-98677.5
-135863
-168964
-199587
-228528
-255824
-280767
-302085
-318019
-326488
-325254
-312126
-285394
-244390
-190411
-126578
-55501.8
29244.8
140049
-87488.5
-133360
-172871
-207339
-238721
-268385
-296574
-322591
-344812
-361015
-368593
-364646
-346379
-311189
-257970
-188400
-107623
-20018.4
71909.3
173107
-122333
-167198
-204564
-236115
-264711
-292417
-319748
-345819
-368604
-385459
-393322
-388936
-368861
-329669
-268953
-187171
-89510.1
14732.6
115190
198998
-160812
-199009
-228442
-251987
-273897
-296743
-321165
-345784
-368215
-385522
-394483
-391977
-374280
-337561
-277492
-192143
-83643
39467
154294
221394
-197529
-222511
-238204
-249366
-261236
-276624
-295602
-316380
-336364
-352679
-362624
-363496
-352430
-325620
-277993
-204051
-99139.2
35085
173110
246538
-218893
-225499
-224470
-221684
-222145
-227899
-238216
-251298
-265010
-277281
-286478
-290871
-289063
-278490
-255407
-212536
-137416
-15351.3
143799
261000
-203100
-192326
-179687
-167380
-157810
-151453
-147860
-146537
-147182
-149739
-154049
-160033
-167356
-175421
-182661
-185160
-170445
-109248
28609.5
212608
-129267
-113956
-108501
-98197.8
-79860.6
-54757.6
-25835.9
3094.35
28123.2
45813.2
53685.3
50112.1
34856.8
9092.66
-25482.3
-70609.5
-130543
-191281
-187300
4193.7
40672.5
106683
163926
201805
215514
206615
182639
155699
139471
139971
36640.8
95714.8
150147
191334
215683
223567
219069
209250
201546
193848
31184.5
81335.6
128674
167246
194771
211785
220966
226486
232052
231985
25670.6
67353.4
107473
141152
167529
187865
204632
220758
237812
247169
21568.4
57673.3
91550
120014
142811
161764
179723
199588
222516
239592
18538.8
51666.4
82001.1
106212
124550
139260
153647
171089
193608
213278
17140.8
50396.9
78984.9
100242
114358
123678
131793
142658
159247
176158
16456.8
51758.4
81016.4
100866
111557
115479
116371
118532
125928
135208
16879.9
56270
87200.9
106832
115046
114100
107819
100721
97259
96365
17363.8
61511.2
95664.7
116113
122677
117590
104710
88690.3
74482.6
62108.6
18260.8
68002.4
105484
127228
132790
124191
105343
81157.9
56720.8
33322.1
18451.1
73156.7
114049
137240
142113
130556
106531
75126.4
41703.7
8304.45
17873.8
76485.1
119246
143302
147497
133404
104914
67187.3
25980.3
-15557.7
15319.6
74214.5
116938
140298
143271
127039
94962.8
52288.4
5209.53
-42197.8
9833.32
64557.6
103068
123229
123911
105835
71603.5
26027.3
-24676.6
-75374.5
389.614
44376.9
73480.1
86806.5
83465.1
63976.8
30119.9
-15060.4
-66022.8
-116513
-13544.5
11839.3
25533
27586.3
18186.3
-1630.07
-31283.3
-70223.8
-115496
-161042
-30009.6
-31397
-39772
-53278.1
-70006.5
-88163
-108268
-132716
-162931
-194982
-43078.9
-89782
-134244
-170266
-195012
-207819
-210764
-208387
-204988
-204025
-44755.7
-180366
-291662
-362975
-396318
-398146
-374417
-328293
-259499
-179572
)
;

boundaryField
{
    left
    {
        type            symmetryPlane;
    }
    right
    {
        type            calculated;
        value           nonuniform List<scalar> 
30
(
-20738.8
-111456
-213283
-320843
-431270
-539224
-642090
-754575
-882263
-984673
-991731
-897989
-748565
-588861
-445694
-325706
-226460
-141207
-65065.5
5350.11
69896.9
126240
170343
199475
215886
228342
247699
272011
287014
296993
)
;
    }
    down
    {
        type            symmetryPlane;
    }
    up
    {
        type            calculated;
        value           nonuniform List<scalar> 
30
(
-42355.9
-206031
-338511
-420051
-455418
-454101
-423356
-365117
-275773
-167581
-100906
-88275.3
-89463.8
-82241.1
-62035.2
-31251.8
5628.6
43263.3
76363.9
100479
112304
109822
92705.6
63021.7
23686
-27880.3
-102677
-199834
-280056
-300848
)
;
    }
    hole
    {
        type            calculated;
        value           nonuniform List<scalar> 
20
(
1.21158e+06
1.2947e+06
1.21154e+06
1.01408e+06
754467
502785
302542
186348
140740
81672.9
-200628
-729269
-1.11085e+06
-1.23818e+06
-1.106e+06
-764975
-314855
166532
626732
979972
)
;
    }
    frontAndBack
    {
        type            empty;
    }
}


// ************************************************************************* //
