/*--------------------------------*- C++ -*----------------------------------*\
  =========                 |
  \\      /  F ield         | OpenFOAM: The Open Source CFD Toolbox
   \\    /   O peration     | Website:  https://openfoam.org
    \\  /    A nd           | Version:  dev
     \\/     M anipulation  |
\*---------------------------------------------------------------------------*/
FoamFile
{
    version     2.0;
    format      ascii;
    class       volScalarField;
    location    "20";
    object      sigmaxz;
}
// * * * * * * * * * * * * * * * * * * * * * * * * * * * * * * * * * * * * * //

dimensions      [1 -1 -2 0 0 0 0];

internalField   nonuniform List<scalar> 
1000
(
6.44102e-10
4.33805e-09
-3.5059e-09
-2.58348e-09
5.94483e-09
3.00816e-09
-2.24881e-09
-5.01061e-10
-6.83475e-09
0
-3.29986e-09
0
2.71854e-09
-5.0368e-09
-2.49613e-09
4.91195e-09
2.08025e-09
2.04099e-09
0
0
0
0
3.05137e-09
2.13189e-09
3.27087e-11
-4.79934e-09
-3.97264e-10
-2.19151e-09
2.79805e-09
7.12903e-10
-1.647e-09
-1.60397e-09
-1.64281e-09
1.78498e-09
4.64319e-09
-2.55368e-09
-2.32886e-09
-5.59567e-09
-3.54091e-09
2.67253e-09
-2.13752e-09
3.85676e-11
-4.82365e-09
-7.64757e-10
1.72281e-09
4.43184e-09
1.06699e-09
1.33382e-09
-6.47134e-09
-1.81225e-09
-4.034e-09
3.18661e-11
-3.19156e-11
-6.32274e-10
-2.93808e-09
-7.88556e-11
2.50899e-09
6.84129e-09
1.12025e-09
-3.04506e-09
1.6622e-09
-8.14579e-10
1.7159e-09
5.45952e-10
4.13723e-09
-3.9418e-09
-2.48632e-09
-2.49538e-09
1.34363e-09
-7.71429e-10
6.2437e-09
-3.84235e-09
-2.75271e-11
-7.48719e-10
6.84637e-09
7.85321e-10
3.6054e-11
-2.00433e-09
-4.73689e-10
-2.31454e-10
4.35714e-09
-3.67148e-09
-3.9071e-10
-6.65703e-10
5.0555e-10
3.35502e-09
-5.27673e-10
5.08411e-09
1.19702e-09
1.58633e-09
4.38372e-09
1.1424e-10
1.65242e-09
-1.50629e-10
7.24923e-12
3.04707e-09
-1.83533e-10
2.56121e-09
1.98239e-10
5.01572e-11
1.35496e-09
3.00055e-09
-1.82561e-09
0
-4.1092e-09
-4.19054e-11
4.47679e-09
2.26792e-09
2.60894e-09
2.69953e-10
7.93426e-11
1.83756e-09
-1.90335e-09
-1.81294e-09
0
-2.21931e-10
4.63224e-09
1.69481e-11
-1.02722e-08
1.58971e-10
-4.47226e-10
1.90615e-09
3.21756e-10
-1.79044e-09
0
-6.67676e-10
-9.41835e-10
2.81763e-09
3.01932e-12
-2.95803e-09
7.65462e-10
-1.49083e-09
4.10047e-10
0
3.01324e-09
6.37597e-09
-4.26906e-09
-6.86588e-09
2.79544e-10
7.04768e-10
-1.12766e-09
2.17266e-09
-6.76974e-10
3.59794e-09
5.52017e-11
-3.0608e-09
2.14381e-10
0
-5.35415e-09
2.7766e-10
-3.46233e-09
-2.67647e-09
-2.2927e-09
-1.65757e-09
1.16922e-09
2.6825e-09
2.66057e-11
-3.23002e-09
2.7959e-12
-1.11156e-09
-9.65715e-10
-5.34989e-11
-8.04662e-11
-3.31226e-09
3.58658e-09
-1.46239e-09
2.79426e-09
1.48897e-11
-1.56878e-09
-8.65722e-10
2.8338e-09
-2.4523e-09
1.48024e-09
-1.45382e-09
1.53323e-10
-2.11134e-09
-3.74876e-09
3.78696e-09
2.16901e-09
2.87978e-09
4.62963e-09
4.86494e-09
-7.24475e-11
5.05632e-10
1.99758e-09
1.69077e-09
3.83064e-09
-2.47201e-09
-2.38483e-09
6.72878e-10
8.79056e-11
1.20734e-09
-1.32969e-09
5.18469e-10
-4.32126e-11
-2.17326e-09
3.20144e-09
-1.16764e-09
-5.54888e-09
6.47521e-09
5.58673e-09
1.84256e-10
-8.10439e-09
-2.71682e-09
-2.14589e-10
0
0
2.65191e-09
6.44307e-11
5.23977e-09
1.67157e-10
-6.95823e-11
1.39898e-10
-7.73911e-09
2.5293e-09
9.14313e-12
-2.54036e-09
2.51831e-09
-4.97815e-09
-2.50757e-09
8.38084e-09
1.73164e-10
-2.63459e-09
8.36727e-09
1.06515e-10
-8.14385e-09
2.5601e-10
0
5.43472e-11
2.04968e-10
2.91473e-09
5.259e-11
-2.53824e-09
2.55085e-09
2.57587e-09
-2.52544e-09
-2.52193e-09
-5.00163e-09
-4.1664e-11
1.6551e-09
2.69595e-09
2.65182e-10
-8.00602e-09
2.23279e-09
8.22235e-09
-7.99423e-09
-2.77546e-09
5.20386e-09
-4.81537e-09
-5.25786e-09
5.00062e-09
7.58649e-09
4.96371e-11
-2.52158e-09
2.47054e-09
8.65077e-12
-2.48596e-09
2.42767e-09
2.37344e-09
9.21561e-13
0
2.4911e-10
2.61048e-09
2.86874e-09
0
-2.2796e-09
-2.94645e-09
-5.06681e-09
-3.82956e-10
4.72394e-09
2.20971e-09
4.10482e-10
-2.0513e-09
2.32044e-09
2.37023e-09
-2.43598e-09
-7.63482e-12
7.22137e-09
-2.34803e-09
-2.41695e-09
4.95083e-09
-4.3977e-10
-5.50614e-09
2.61145e-09
6.21577e-09
-2.59128e-09
0
2.46013e-09
-6.75207e-10
-2.72048e-09
-4.33623e-09
-4.76724e-09
6.49369e-09
7.05206e-09
1.49167e-10
-2.24697e-09
1.83263e-10
7.31151e-11
4.7475e-09
2.34561e-09
2.77667e-09
1.1237e-10
-2.87463e-09
-8.1379e-09
2.56464e-09
4.96035e-09
-2.40653e-09
1.97394e-09
3.49162e-09
-6.96856e-09
-2.49989e-09
1.11881e-08
1.34275e-09
-6.93177e-09
-2.15654e-09
-4.91416e-09
-5.60296e-11
6.92386e-09
2.24481e-09
1.09327e-11
-2.73742e-09
2.2712e-09
6.52619e-10
-2.37481e-09
-9.32025e-10
4.43236e-10
3.33109e-09
-5.90542e-09
-3.47734e-09
5.70629e-09
-6.20374e-10
6.68588e-09
2.86075e-09
-6.39202e-09
3.73608e-09
1.12542e-10
-6.85213e-09
2.20206e-09
2.26199e-09
7.77588e-12
1.41363e-10
-2.16449e-09
-1.69842e-09
0
0
-5.07519e-09
6.30901e-09
1.177e-08
-1.03189e-08
-7.20271e-09
4.30165e-09
1.7155e-09
9.8028e-10
5.11722e-09
1.50318e-10
-5.36385e-09
0
-2.34215e-10
5.73858e-11
2.63534e-11
-1.57218e-10
7.36677e-10
-8.65178e-10
-8.36436e-10
3.73573e-09
1.69814e-09
-3.31806e-09
-3.11498e-09
1.46502e-09
3.24807e-09
-1.63843e-09
9.28981e-11
-5.69458e-09
-1.33327e-10
4.95243e-10
-8.16265e-11
7.8782e-09
-1.02504e-10
-8.20878e-09
-1.3681e-09
2.71059e-11
-6.4168e-10
1.85926e-09
-6.39986e-09
-5.64624e-09
4.76517e-09
5.52782e-09
5.65301e-09
-3.85445e-09
1.62114e-10
-5.68969e-10
-5.58784e-09
0
9.43395e-10
-1.2196e-10
-6.61556e-10
1.84096e-09
2.16528e-10
-3.27616e-11
-2.45256e-11
2.46658e-09
-6.67205e-10
-1.12373e-09
5.93624e-10
6.52416e-10
1.9794e-10
-2.24096e-09
-1.31728e-09
2.9755e-09
-3.73594e-10
9.94435e-10
-2.98618e-10
0
-2.17334e-10
1.80869e-10
-1.53153e-10
-1.65218e-09
8.39672e-11
5.05165e-11
5.61557e-12
1.68125e-09
0
-1.75956e-09
2.96776e-23
-3.15122e-24
1.24426e-23
2.43881e-23
-1.76049e-09
0
1.76093e-09
-1.82104e-23
-1.76136e-09
1.76158e-09
1.20748e-23
-1.76197e-09
-1.21043e-23
1.76217e-09
1.76214e-09
-1.21365e-23
-4.03139e-24
1.76404e-09
4.51298e-12
-1.75508e-09
0
1.76539e-09
1.77134e-09
-1.75474e-09
-1.74878e-09
1.76094e-09
1.28149e-11
6.63771e-12
1.37495e-11
1.42302e-11
7.35242e-12
1.51559e-11
1.55641e-11
-1.76238e-09
8.08429e-12
8.11772e-12
-7.99828e-13
6.79225e-09
-4.4648e-12
-3.51551e-09
5.93574e-23
3.52575e-09
0
-5.50259e-12
-3.52184e-09
7.2655e-23
3.52276e-09
6.29262e-12
-1.21055e-23
-7.26288e-23
-6.86375e-12
-3.63215e-23
-3.52497e-09
2.34313e-23
3.53182e-09
7.14485e-12
-3.9756e-13
-8.25898e-12
1.75593e-09
-8.93073e-12
1.17424e-23
1.75088e-09
-1.76569e-09
-1.76606e-09
-1.06735e-11
1.76133e-09
1.7559e-09
-1.16571e-11
-1.768e-09
-1.77446e-09
-6.23785e-12
1.74986e-09
-6.35776e-12
3.91345e-25
1.74968e-09
-1.22596e-11
1.41214e-13
5.47488e-11
4.00424e-12
-1.76044e-09
0
1.76068e-09
1.75622e-09
-1.75627e-09
-1.76126e-09
1.76148e-09
-5.1753e-12
6.00434e-24
-5.40359e-12
0
5.55229e-12
0
-5.55329e-12
-1.76238e-09
6.0156e-24
-3.59069e-26
-2.01956e-24
1.71297e-09
-3.63721e-12
-1.7606e-09
3.04536e-23
-1.80143e-23
-4.20978e-12
-4.33199e-12
-1.76138e-09
0
1.75716e-09
-4.23937e-23
-1.76701e-09
1.76236e-09
-4.86055e-12
-1.7625e-09
-4.78353e-12
1.76227e-09
1.76195e-09
3.05032e-26
-4.03375e-24
-3.05634e-12
-3.22547e-12
-3.38118e-12
0
-3.65014e-12
0
-3.86968e-12
0
0
0
-4.16318e-12
0
0
-4.19659e-12
0
0
0
-3.86851e-12
-3.77219e-12
-5.86894e-13
-1.71302e-09
0
2.95307e-12
0
3.20874e-12
3.31328e-12
0
0
0
3.58319e-12
3.61145e-12
3.6217e-12
0
0
0
3.45082e-12
0
3.27228e-12
3.20172e-12
7.59771e-13
-5.19053e-09
2.38566e-12
5.67806e-24
1.17495e-23
1.76117e-09
-1.75842e-09
-1.75849e-09
0
1.76179e-09
1.76504e-09
-6.07391e-24
-1.75916e-09
-1.76233e-09
3.02333e-12
1.76232e-09
2.90049e-12
3.71822e-25
1.76167e-09
-1.89518e-26
-2.01837e-24
1.76123e-09
-1.19427e-23
-1.76117e-09
0
1.76128e-09
1.76138e-09
-1.76151e-09
-1.76166e-09
1.76182e-09
-2.40248e-23
-3.5567e-25
1.19523e-23
-1.76888e-26
3.65402e-23
-1.21473e-23
1.21377e-23
-1.76191e-09
1.5965e-26
-1.20835e-23
7.48543e-27
-5.17813e-09
-6.03299e-24
-1.83379e-25
1.25149e-23
1.76138e-09
-1.76146e-09
-1.76157e-09
0
1.76183e-09
1.76197e-09
1.50884e-26
-1.76219e-09
-1.76226e-09
1.21063e-23
1.76221e-09
-3.9126e-25
3.91214e-25
1.76159e-09
-1.20858e-23
8.49107e-27
5.85354e-11
1.30201e-12
-1.76143e-09
0
1.76148e-09
1.75975e-09
-1.75975e-09
-1.75788e-09
1.76184e-09
-1.93949e-12
-4.1755e-25
-1.86459e-12
3.62311e-12
1.75963e-12
3.43484e-12
-1.69023e-12
-1.76185e-09
0
-1.20992e-23
0
1.69614e-09
-9.96996e-13
-1.76157e-09
1.17435e-23
8.41469e-24
-1.58395e-12
3.52172e-09
-1.76177e-09
-3.52369e-09
1.76019e-09
5.90896e-26
1.76046e-09
1.76215e-09
-1.48632e-12
-1.76214e-09
-3.52548e-09
1.76185e-09
1.76158e-09
6.04964e-24
-2.01787e-24
-6.05145e-24
-7.1826e-13
-1.2724e-26
0
1.78517e-26
1.46379e-12
-1.57984e-12
-3.30233e-12
0
1.66141e-12
-2.42193e-23
1.5216e-12
-2.83036e-12
-1.30276e-12
-2.40926e-12
1.14418e-12
0
-1.65298e-26
2.41816e-23
-4.05546e-24
-1.76196e-09
6.06412e-24
5.68076e-24
1.17441e-23
1.76195e-09
-1.76192e-09
-1.76189e-09
0
1.76185e-09
1.76186e-09
-1.81437e-23
-1.7619e-09
-1.76193e-09
0
1.76198e-09
-6.4616e-24
4.02492e-25
1.76171e-09
1.21068e-23
-2.0271e-24
7.42999e-15
0
3.02165e-24
0
-3.02614e-24
-1.21163e-23
0
0
0
-6.03744e-24
-6.06475e-24
1.27809e-26
0
0
0
4.78993e-27
0
3.02549e-23
-2.14465e-27
-8.84956e-27
-3.31145e-09
1.76303e-09
2.34844e-24
1.99855e-25
1.76251e-09
-1.76047e-09
-1.76005e-09
0
1.76195e-09
1.76444e-09
6.06861e-24
-1.75912e-09
-1.76144e-09
1.74467e-12
1.76132e-09
6.28974e-13
-1.19293e-23
1.7616e-09
-1.27531e-26
2.11526e-28
1.76323e-09
6.59561e-13
-1.76425e-09
0
1.76093e-09
1.76273e-09
-1.75977e-09
-1.76233e-09
1.76209e-09
-3.59911e-23
-3.51801e-12
-3.91089e-25
2.06829e-26
2.49277e-12
1.23228e-26
1.21217e-23
-1.76062e-09
1.52776e-12
2.91955e-12
2.95906e-15
-1.63421e-09
-1.76367e-09
-1.76356e-09
0
1.76335e-09
1.76319e-09
-1.76298e-09
-1.7627e-09
1.76235e-09
-2.40773e-23
1.21251e-23
-4.07311e-25
-2.98634e-26
1.20901e-23
-1.97074e-26
1.20983e-23
-1.75905e-09
0
0
0
2.33528e-09
-5.47101e-10
-2.47543e-09
3.85516e-10
-3.99009e-11
2.76087e-09
7.83847e-10
-3.84365e-10
-1.07247e-09
0
1.02102e-11
2.36384e-09
2.34578e-09
1.31997e-09
-8.94585e-11
-3.37813e-09
-9.96524e-11
2.28239e-09
-2.70263e-11
1.51209e-09
-2.03201e-11
-2.34889e-09
-2.31589e-09
3.48341e-09
2.31636e-09
3.50611e-09
-1.53969e-10
-3.31619e-09
-4.28555e-11
-1.12636e-09
-3.13786e-42
1.12287e-09
-1.55438e-10
-1.31975e-09
1.24893e-09
-2.43507e-09
-3.28342e-09
2.44552e-09
-9.6124e-11
3.88106e-09
1.15173e-09
1.20635e-09
0
-1.24198e-09
-1.16757e-09
6.28928e-11
-1.12614e-10
1.12337e-09
-8.08795e-11
-1.2447e-09
-2.31575e-09
1.22074e-09
3.52249e-09
-1.19587e-09
-1.24322e-09
1.24856e-10
1.26208e-09
1.1882e-09
8.02408e-11
-1.60661e-09
-3.13755e-42
-8.83118e-11
1.23354e-09
1.17753e-09
-3.68999e-09
-1.12175e-09
3.6981e-09
-2.64841e-09
-1.07431e-09
4.25645e-09
1.16007e-09
-4.2534e-11
2.17696e-11
2.66935e-11
-1.32995e-09
1.14833e-09
-5.4712e-11
-3.97461e-09
1.19479e-12
2.69529e-09
2.01423e-11
-1.09956e-09
-1.182e-09
3.68229e-09
5.30762e-12
-3.78852e-09
1.49698e-09
3.91999e-09
-2.83273e-10
-4.46456e-09
3.02687e-11
2.47559e-09
3.5461e-09
-2.50565e-09
4.34925e-10
-2.36279e-11
2.87105e-09
6.69376e-09
8.29521e-11
-3.35403e-09
-5.01032e-11
3.51486e-09
2.32619e-09
-3.64962e-09
-2.60152e-09
2.82551e-09
2.61326e-09
1.33111e-10
8.41757e-11
2.14282e-13
-2.41016e-09
-2.47442e-09
-1.22713e-09
-1.22289e-09
-2.76609e-09
-2.56385e-09
2.70744e-09
2.69478e-09
4.4763e-09
1.02551e-09
1.23128e-09
1.22919e-09
-1.18935e-09
3.13562e-11
-2.70047e-09
2.44676e-11
3.84015e-09
-2.20599e-13
-1.49291e-13
-1.69448e-09
-3.13654e-42
2.90146e-11
4.50382e-11
1.27003e-09
2.26584e-11
4.79396e-11
-1.50749e-12
-1.40068e-09
-5.70081e-11
1.74022e-09
-3.13631e-42
0
-1.35062e-10
0
-2.75374e-09
2.187e-10
4.19035e-09
4.32371e-09
-1.69653e-09
-4.64584e-09
-1.0087e-11
3.69729e-09
2.9355e-11
8.51095e-11
-2.75169e-09
-4.00356e-09
4.27277e-09
-1.58937e-11
1.58307e-10
1.55727e-09
-1.22601e-09
-3.70349e-09
1.76265e-10
2.35095e-09
1.91154e-10
-2.87097e-09
9.91488e-11
2.90824e-09
-2.99739e-11
-1.02883e-11
3.74063e-14
5.96886e-11
3.56108e-09
-1.32666e-10
-3.89502e-09
0
-1.16793e-10
1.4886e-09
3.05541e-09
-1.94548e-09
-3.69286e-09
2.49758e-09
3.7271e-09
-3.6684e-09
-1.36978e-09
-6.55064e-11
0
-4.75857e-11
3.09262e-11
-8.41162e-14
3.77478e-09
2.335e-09
-1.02692e-09
1.398e-09
1.2004e-09
-1.48725e-09
3.49856e-11
-1.28274e-10
1.58689e-09
1.29653e-09
)
;

boundaryField
{
    left
    {
        type            symmetryPlane;
    }
    right
    {
        type            calculated;
        value           nonuniform List<scalar> 
30
(
4.96097e-12
-5.03814e-12
9.92434e-15
1.03445e-12
-5.84825e-12
5.70001e-12
3.59181e-12
1.30467e-11
-5.39609e-12
-1.132e-11
-5.24172e-13
1.94452e-26
-5.19421e-12
-4.08604e-12
6.18524e-12
1.2199e-26
-1.76946e-26
9.79824e-13
-4.51483e-13
-3.31229e-27
3.33849e-27
6.02962e-27
0
-2.54888e-27
-2.54386e-26
-1.28188e-26
-1.18309e-26
4.19099e-28
-1.99156e-12
0
)
;
    }
    down
    {
        type            symmetryPlane;
    }
    up
    {
        type            calculated;
        value           nonuniform List<scalar> 
30
(
3.77478e-09
2.335e-09
-1.02692e-09
1.398e-09
1.2004e-09
-1.48725e-09
3.49856e-11
-1.28274e-10
1.58689e-09
1.29653e-09
-1.63421e-09
-1.76367e-09
-1.76356e-09
0
1.76335e-09
1.76319e-09
-1.76298e-09
-1.7627e-09
1.76235e-09
-2.40773e-23
1.21251e-23
-4.07311e-25
-2.98634e-26
1.20901e-23
-1.97074e-26
1.20983e-23
-1.75905e-09
0
0
0
)
;
    }
    hole
    {
        type            calculated;
        value           nonuniform List<scalar> 
20
(
5.71011e-12
-3.33879e-09
0
-1.51036e-09
-1.92778e-09
-3.74302e-09
2.05281e-09
6.26054e-09
4.22571e-09
4.30287e-09
-1.71008e-10
-5.09801e-10
-4.23564e-10
1.17362e-09
-2.14609e-09
-2.71188e-09
-6.19061e-10
3.55825e-09
3.97468e-09
9.95433e-13
)
;
    }
    frontAndBack
    {
        type            empty;
    }
}


// ************************************************************************* //
