/*--------------------------------*- C++ -*----------------------------------*\
  =========                 |
  \\      /  F ield         | OpenFOAM: The Open Source CFD Toolbox
   \\    /   O peration     | Website:  https://openfoam.org
    \\  /    A nd           | Version:  dev
     \\/     M anipulation  |
\*---------------------------------------------------------------------------*/
FoamFile
{
    version     2.0;
    format      ascii;
    class       volScalarField;
    location    "20";
    object      sigmazz;
}
// * * * * * * * * * * * * * * * * * * * * * * * * * * * * * * * * * * * * * //

dimensions      [1 -1 -2 0 0 0 0];

internalField   nonuniform List<scalar> 
1000
(
-5.08258e+08
-5.08143e+08
-5.08071e+08
-5.08015e+08
-5.0797e+08
-5.07935e+08
-5.07907e+08
-5.07884e+08
-5.07865e+08
-5.0785e+08
-5.0832e+08
-5.08201e+08
-5.08123e+08
-5.08061e+08
-5.08012e+08
-5.07974e+08
-5.07944e+08
-5.07919e+08
-5.079e+08
-5.07889e+08
-5.08341e+08
-5.08226e+08
-5.08149e+08
-5.08087e+08
-5.08038e+08
-5.07999e+08
-5.07968e+08
-5.07943e+08
-5.07922e+08
-5.07911e+08
-5.08332e+08
-5.08228e+08
-5.08155e+08
-5.08097e+08
-5.08051e+08
-5.08013e+08
-5.07982e+08
-5.07957e+08
-5.07936e+08
-5.07923e+08
-5.08295e+08
-5.08211e+08
-5.08147e+08
-5.08095e+08
-5.08053e+08
-5.08018e+08
-5.07989e+08
-5.07964e+08
-5.07943e+08
-5.07929e+08
-5.08245e+08
-5.08184e+08
-5.08129e+08
-5.08085e+08
-5.08048e+08
-5.08017e+08
-5.0799e+08
-5.07967e+08
-5.07945e+08
-5.07931e+08
-5.08192e+08
-5.08152e+08
-5.08108e+08
-5.08071e+08
-5.08039e+08
-5.08012e+08
-5.07988e+08
-5.07966e+08
-5.07946e+08
-5.07931e+08
-5.0815e+08
-5.08125e+08
-5.08088e+08
-5.08057e+08
-5.0803e+08
-5.08006e+08
-5.07984e+08
-5.07964e+08
-5.07946e+08
-5.0793e+08
-5.08133e+08
-5.08106e+08
-5.08073e+08
-5.08046e+08
-5.08022e+08
-5.08001e+08
-5.07981e+08
-5.07963e+08
-5.07946e+08
-5.0793e+08
-5.08142e+08
-5.08095e+08
-5.08067e+08
-5.08043e+08
-5.0802e+08
-5.08e+08
-5.0798e+08
-5.07962e+08
-5.07944e+08
-5.07927e+08
-5.06869e+08
-5.07065e+08
-5.07205e+08
-5.07315e+08
-5.07404e+08
-5.07475e+08
-5.07534e+08
-5.07583e+08
-5.07625e+08
-5.07661e+08
-5.06898e+08
-5.07107e+08
-5.0723e+08
-5.07331e+08
-5.07412e+08
-5.0748e+08
-5.07536e+08
-5.07583e+08
-5.07624e+08
-5.07661e+08
-5.07001e+08
-5.07185e+08
-5.07295e+08
-5.07381e+08
-5.07452e+08
-5.07511e+08
-5.0756e+08
-5.07601e+08
-5.07638e+08
-5.07674e+08
-5.07167e+08
-5.073e+08
-5.07384e+08
-5.07453e+08
-5.07508e+08
-5.07554e+08
-5.07593e+08
-5.07627e+08
-5.07657e+08
-5.07691e+08
-5.07357e+08
-5.07438e+08
-5.07495e+08
-5.07538e+08
-5.07575e+08
-5.07607e+08
-5.07634e+08
-5.07658e+08
-5.07681e+08
-5.07712e+08
-5.07557e+08
-5.07584e+08
-5.0761e+08
-5.07631e+08
-5.07649e+08
-5.07665e+08
-5.0768e+08
-5.07694e+08
-5.07708e+08
-5.07735e+08
-5.07739e+08
-5.07724e+08
-5.07724e+08
-5.07723e+08
-5.07724e+08
-5.07725e+08
-5.07727e+08
-5.07731e+08
-5.07736e+08
-5.07758e+08
-5.07903e+08
-5.07854e+08
-5.07829e+08
-5.07809e+08
-5.07795e+08
-5.07783e+08
-5.07774e+08
-5.07768e+08
-5.07764e+08
-5.07779e+08
-5.08051e+08
-5.07969e+08
-5.07924e+08
-5.07888e+08
-5.07861e+08
-5.07839e+08
-5.0782e+08
-5.07805e+08
-5.07792e+08
-5.07796e+08
-5.08165e+08
-5.08061e+08
-5.08002e+08
-5.07955e+08
-5.07918e+08
-5.07889e+08
-5.07864e+08
-5.07842e+08
-5.0782e+08
-5.07808e+08
-5.07692e+08
-5.07719e+08
-5.07743e+08
-5.07765e+08
-5.07787e+08
-5.07809e+08
-5.07831e+08
-5.07853e+08
-5.07877e+08
-5.07902e+08
-5.07928e+08
-5.07956e+08
-5.07987e+08
-5.08018e+08
-5.08052e+08
-5.08087e+08
-5.08123e+08
-5.08163e+08
-5.08203e+08
-5.08237e+08
-5.07693e+08
-5.0772e+08
-5.07743e+08
-5.07764e+08
-5.07785e+08
-5.07806e+08
-5.07827e+08
-5.07849e+08
-5.07872e+08
-5.07896e+08
-5.07922e+08
-5.07949e+08
-5.07978e+08
-5.08009e+08
-5.08042e+08
-5.08076e+08
-5.08113e+08
-5.08153e+08
-5.08197e+08
-5.08243e+08
-5.07705e+08
-5.0773e+08
-5.07749e+08
-5.07767e+08
-5.07785e+08
-5.07804e+08
-5.07824e+08
-5.07844e+08
-5.07866e+08
-5.07889e+08
-5.07913e+08
-5.07939e+08
-5.07968e+08
-5.07998e+08
-5.0803e+08
-5.08064e+08
-5.08101e+08
-5.08142e+08
-5.08187e+08
-5.08236e+08
-5.07722e+08
-5.07744e+08
-5.07757e+08
-5.07771e+08
-5.07786e+08
-5.07802e+08
-5.07819e+08
-5.07837e+08
-5.07857e+08
-5.07878e+08
-5.07901e+08
-5.07926e+08
-5.07953e+08
-5.07981e+08
-5.08012e+08
-5.08045e+08
-5.08082e+08
-5.08124e+08
-5.08169e+08
-5.0822e+08
-5.07743e+08
-5.0776e+08
-5.07767e+08
-5.07776e+08
-5.07787e+08
-5.07799e+08
-5.07814e+08
-5.0783e+08
-5.07847e+08
-5.07866e+08
-5.07886e+08
-5.07909e+08
-5.07933e+08
-5.0796e+08
-5.07989e+08
-5.08021e+08
-5.08056e+08
-5.08096e+08
-5.08141e+08
-5.08192e+08
-5.07765e+08
-5.07777e+08
-5.07778e+08
-5.07781e+08
-5.07788e+08
-5.07797e+08
-5.07808e+08
-5.07821e+08
-5.07836e+08
-5.07852e+08
-5.0787e+08
-5.07889e+08
-5.07911e+08
-5.07934e+08
-5.07961e+08
-5.0799e+08
-5.08023e+08
-5.08061e+08
-5.08105e+08
-5.08155e+08
-5.07787e+08
-5.07792e+08
-5.07788e+08
-5.07787e+08
-5.0779e+08
-5.07795e+08
-5.07803e+08
-5.07813e+08
-5.07824e+08
-5.07837e+08
-5.07852e+08
-5.07868e+08
-5.07886e+08
-5.07906e+08
-5.07928e+08
-5.07954e+08
-5.07984e+08
-5.08019e+08
-5.08061e+08
-5.08109e+08
-5.07805e+08
-5.07805e+08
-5.07798e+08
-5.07793e+08
-5.07792e+08
-5.07794e+08
-5.07799e+08
-5.07806e+08
-5.07814e+08
-5.07824e+08
-5.07834e+08
-5.07847e+08
-5.07861e+08
-5.07877e+08
-5.07895e+08
-5.07917e+08
-5.07939e+08
-5.07972e+08
-5.08006e+08
-5.08057e+08
-5.07817e+08
-5.07812e+08
-5.07803e+08
-5.07798e+08
-5.07795e+08
-5.07795e+08
-5.07797e+08
-5.078e+08
-5.07806e+08
-5.07812e+08
-5.0782e+08
-5.07828e+08
-5.07839e+08
-5.07849e+08
-5.07864e+08
-5.07877e+08
-5.07896e+08
-5.07913e+08
-5.07938e+08
-5.07988e+08
-5.07829e+08
-5.07822e+08
-5.07814e+08
-5.07806e+08
-5.07801e+08
-5.07798e+08
-5.07797e+08
-5.07798e+08
-5.07801e+08
-5.07804e+08
-5.07809e+08
-5.07814e+08
-5.0782e+08
-5.07827e+08
-5.07834e+08
-5.07841e+08
-5.07849e+08
-5.0785e+08
-5.0786e+08
-5.07892e+08
-5.07799e+08
-5.07803e+08
-5.07804e+08
-5.07801e+08
-5.07798e+08
-5.07797e+08
-5.07797e+08
-5.07797e+08
-5.07798e+08
-5.07801e+08
-5.07802e+08
-5.07806e+08
-5.07807e+08
-5.07811e+08
-5.07811e+08
-5.07812e+08
-5.07806e+08
-5.07799e+08
-5.07784e+08
-5.07781e+08
-5.0781e+08
-5.078e+08
-5.07797e+08
-5.07793e+08
-5.0779e+08
-5.07789e+08
-5.07788e+08
-5.07788e+08
-5.07789e+08
-5.07789e+08
-5.0779e+08
-5.0779e+08
-5.07789e+08
-5.07787e+08
-5.07782e+08
-5.07775e+08
-5.07763e+08
-5.07741e+08
-5.07714e+08
-5.07678e+08
-5.07815e+08
-5.07799e+08
-5.07794e+08
-5.0779e+08
-5.07786e+08
-5.07783e+08
-5.07781e+08
-5.0778e+08
-5.07778e+08
-5.07776e+08
-5.07774e+08
-5.07771e+08
-5.07766e+08
-5.07759e+08
-5.0775e+08
-5.07736e+08
-5.07716e+08
-5.07689e+08
-5.0765e+08
-5.07592e+08
-5.07816e+08
-5.07798e+08
-5.07792e+08
-5.07786e+08
-5.07781e+08
-5.07777e+08
-5.07774e+08
-5.0777e+08
-5.07767e+08
-5.07763e+08
-5.07759e+08
-5.07753e+08
-5.07745e+08
-5.07734e+08
-5.0772e+08
-5.07701e+08
-5.07676e+08
-5.07642e+08
-5.076e+08
-5.07535e+08
-5.07814e+08
-5.07795e+08
-5.07787e+08
-5.07781e+08
-5.07775e+08
-5.0777e+08
-5.07765e+08
-5.0776e+08
-5.07756e+08
-5.0775e+08
-5.07744e+08
-5.07735e+08
-5.07725e+08
-5.07711e+08
-5.07694e+08
-5.07672e+08
-5.07644e+08
-5.07609e+08
-5.07565e+08
-5.07502e+08
-5.07808e+08
-5.0779e+08
-5.07781e+08
-5.07774e+08
-5.07767e+08
-5.07761e+08
-5.07756e+08
-5.0775e+08
-5.07744e+08
-5.07738e+08
-5.0773e+08
-5.0772e+08
-5.07708e+08
-5.07692e+08
-5.07673e+08
-5.07649e+08
-5.0762e+08
-5.07584e+08
-5.07542e+08
-5.07487e+08
-5.07798e+08
-5.07782e+08
-5.07773e+08
-5.07765e+08
-5.07758e+08
-5.07752e+08
-5.07746e+08
-5.07739e+08
-5.07733e+08
-5.07726e+08
-5.07717e+08
-5.07706e+08
-5.07693e+08
-5.07677e+08
-5.07657e+08
-5.07632e+08
-5.07602e+08
-5.07568e+08
-5.0753e+08
-5.07482e+08
-5.07785e+08
-5.07771e+08
-5.07763e+08
-5.07755e+08
-5.07748e+08
-5.07741e+08
-5.07735e+08
-5.07729e+08
-5.07722e+08
-5.07714e+08
-5.07705e+08
-5.07694e+08
-5.07681e+08
-5.07664e+08
-5.07645e+08
-5.0762e+08
-5.07592e+08
-5.07559e+08
-5.07524e+08
-5.07483e+08
-5.0777e+08
-5.07758e+08
-5.0775e+08
-5.07743e+08
-5.07736e+08
-5.0773e+08
-5.07724e+08
-5.07718e+08
-5.07711e+08
-5.07704e+08
-5.07695e+08
-5.07685e+08
-5.07671e+08
-5.07656e+08
-5.07636e+08
-5.07613e+08
-5.07586e+08
-5.07556e+08
-5.07525e+08
-5.07488e+08
-5.07753e+08
-5.07743e+08
-5.07736e+08
-5.0773e+08
-5.07724e+08
-5.07718e+08
-5.07713e+08
-5.07707e+08
-5.07701e+08
-5.07695e+08
-5.07687e+08
-5.07677e+08
-5.07665e+08
-5.0765e+08
-5.07632e+08
-5.0761e+08
-5.07585e+08
-5.07558e+08
-5.07529e+08
-5.07497e+08
-5.07735e+08
-5.07726e+08
-5.0772e+08
-5.07715e+08
-5.0771e+08
-5.07705e+08
-5.07701e+08
-5.07697e+08
-5.07692e+08
-5.07686e+08
-5.0768e+08
-5.07671e+08
-5.07661e+08
-5.07647e+08
-5.07631e+08
-5.07611e+08
-5.07588e+08
-5.07562e+08
-5.07537e+08
-5.07509e+08
-5.07715e+08
-5.07708e+08
-5.07703e+08
-5.07699e+08
-5.07695e+08
-5.07692e+08
-5.07689e+08
-5.07686e+08
-5.07683e+08
-5.07679e+08
-5.07674e+08
-5.07668e+08
-5.07659e+08
-5.07647e+08
-5.07633e+08
-5.07615e+08
-5.07593e+08
-5.0757e+08
-5.07547e+08
-5.07523e+08
-5.07694e+08
-5.07689e+08
-5.07685e+08
-5.07681e+08
-5.07679e+08
-5.07677e+08
-5.07676e+08
-5.07676e+08
-5.07675e+08
-5.07673e+08
-5.07671e+08
-5.07667e+08
-5.0766e+08
-5.07651e+08
-5.07638e+08
-5.07622e+08
-5.07602e+08
-5.07579e+08
-5.07557e+08
-5.07537e+08
-5.07672e+08
-5.07668e+08
-5.07665e+08
-5.07663e+08
-5.07662e+08
-5.07662e+08
-5.07663e+08
-5.07665e+08
-5.07667e+08
-5.07668e+08
-5.07669e+08
-5.07668e+08
-5.07665e+08
-5.07658e+08
-5.07647e+08
-5.07632e+08
-5.07613e+08
-5.07591e+08
-5.07567e+08
-5.07548e+08
-5.07648e+08
-5.07645e+08
-5.07643e+08
-5.07643e+08
-5.07644e+08
-5.07646e+08
-5.0765e+08
-5.07655e+08
-5.0766e+08
-5.07665e+08
-5.07669e+08
-5.07672e+08
-5.07672e+08
-5.07669e+08
-5.07661e+08
-5.07648e+08
-5.07628e+08
-5.07603e+08
-5.07576e+08
-5.07552e+08
-5.07622e+08
-5.07621e+08
-5.0762e+08
-5.07621e+08
-5.07624e+08
-5.07629e+08
-5.07636e+08
-5.07644e+08
-5.07652e+08
-5.07662e+08
-5.0767e+08
-5.07678e+08
-5.07683e+08
-5.07684e+08
-5.07681e+08
-5.0767e+08
-5.0765e+08
-5.07622e+08
-5.07584e+08
-5.07543e+08
-5.07594e+08
-5.07595e+08
-5.07595e+08
-5.07598e+08
-5.07603e+08
-5.07611e+08
-5.0762e+08
-5.07632e+08
-5.07645e+08
-5.07659e+08
-5.07673e+08
-5.07687e+08
-5.07698e+08
-5.07705e+08
-5.07707e+08
-5.077e+08
-5.07682e+08
-5.07648e+08
-5.07597e+08
-5.07524e+08
-5.07562e+08
-5.07565e+08
-5.07568e+08
-5.07573e+08
-5.0758e+08
-5.0759e+08
-5.07603e+08
-5.07618e+08
-5.07636e+08
-5.07656e+08
-5.07677e+08
-5.07698e+08
-5.07717e+08
-5.07733e+08
-5.07743e+08
-5.07744e+08
-5.07732e+08
-5.07698e+08
-5.07628e+08
-5.07497e+08
-5.07527e+08
-5.07531e+08
-5.07538e+08
-5.07546e+08
-5.07555e+08
-5.07567e+08
-5.07582e+08
-5.07602e+08
-5.07625e+08
-5.07652e+08
-5.07681e+08
-5.07711e+08
-5.0774e+08
-5.07766e+08
-5.07788e+08
-5.07804e+08
-5.07806e+08
-5.07782e+08
-5.07704e+08
-5.07496e+08
-5.07484e+08
-5.07497e+08
-5.07508e+08
-5.07517e+08
-5.07525e+08
-5.07537e+08
-5.07555e+08
-5.07579e+08
-5.0761e+08
-5.07645e+08
-5.07685e+08
-5.07727e+08
-5.07768e+08
-5.07808e+08
-5.07845e+08
-5.07882e+08
-5.07915e+08
-5.07936e+08
-5.07916e+08
-5.07695e+08
-5.07909e+08
-5.07912e+08
-5.07912e+08
-5.07912e+08
-5.07912e+08
-5.07911e+08
-5.07907e+08
-5.07897e+08
-5.07879e+08
-5.07849e+08
-5.07892e+08
-5.07894e+08
-5.07893e+08
-5.07893e+08
-5.07891e+08
-5.07889e+08
-5.07886e+08
-5.07879e+08
-5.07868e+08
-5.07849e+08
-5.07876e+08
-5.07878e+08
-5.07876e+08
-5.07874e+08
-5.07873e+08
-5.07872e+08
-5.07871e+08
-5.0787e+08
-5.07867e+08
-5.07853e+08
-5.07862e+08
-5.07862e+08
-5.0786e+08
-5.07857e+08
-5.07855e+08
-5.07854e+08
-5.07855e+08
-5.07856e+08
-5.07859e+08
-5.0785e+08
-5.07848e+08
-5.07848e+08
-5.07845e+08
-5.07841e+08
-5.07839e+08
-5.07838e+08
-5.07838e+08
-5.07841e+08
-5.07847e+08
-5.07843e+08
-5.07834e+08
-5.07834e+08
-5.0783e+08
-5.07826e+08
-5.07823e+08
-5.07821e+08
-5.07821e+08
-5.07824e+08
-5.07832e+08
-5.0783e+08
-5.07822e+08
-5.07821e+08
-5.07816e+08
-5.07812e+08
-5.07808e+08
-5.07805e+08
-5.07805e+08
-5.07807e+08
-5.07815e+08
-5.07815e+08
-5.0781e+08
-5.07808e+08
-5.07803e+08
-5.07798e+08
-5.07793e+08
-5.07789e+08
-5.07788e+08
-5.07789e+08
-5.07796e+08
-5.07798e+08
-5.07798e+08
-5.07796e+08
-5.0779e+08
-5.07784e+08
-5.07778e+08
-5.07774e+08
-5.07771e+08
-5.07771e+08
-5.07776e+08
-5.07779e+08
-5.07786e+08
-5.07784e+08
-5.07778e+08
-5.0777e+08
-5.07764e+08
-5.07758e+08
-5.07754e+08
-5.07753e+08
-5.07756e+08
-5.07759e+08
-5.07775e+08
-5.07773e+08
-5.07766e+08
-5.07757e+08
-5.07749e+08
-5.07742e+08
-5.07737e+08
-5.07734e+08
-5.07735e+08
-5.07738e+08
-5.07765e+08
-5.07762e+08
-5.07754e+08
-5.07744e+08
-5.07735e+08
-5.07726e+08
-5.07719e+08
-5.07715e+08
-5.07714e+08
-5.07717e+08
-5.07755e+08
-5.07752e+08
-5.07743e+08
-5.07732e+08
-5.0772e+08
-5.07709e+08
-5.07701e+08
-5.07695e+08
-5.07693e+08
-5.07695e+08
-5.07746e+08
-5.07742e+08
-5.07732e+08
-5.07719e+08
-5.07706e+08
-5.07693e+08
-5.07682e+08
-5.07675e+08
-5.07671e+08
-5.07672e+08
-5.0774e+08
-5.07735e+08
-5.07723e+08
-5.07708e+08
-5.07691e+08
-5.07676e+08
-5.07662e+08
-5.07653e+08
-5.07647e+08
-5.07647e+08
-5.07735e+08
-5.07729e+08
-5.07715e+08
-5.07697e+08
-5.07677e+08
-5.07658e+08
-5.07642e+08
-5.0763e+08
-5.07623e+08
-5.07621e+08
-5.07735e+08
-5.07726e+08
-5.0771e+08
-5.07688e+08
-5.07664e+08
-5.0764e+08
-5.0762e+08
-5.07605e+08
-5.07595e+08
-5.07593e+08
-5.07742e+08
-5.07729e+08
-5.0771e+08
-5.07682e+08
-5.07651e+08
-5.07621e+08
-5.07595e+08
-5.07575e+08
-5.07563e+08
-5.0756e+08
-5.07753e+08
-5.07738e+08
-5.07714e+08
-5.07679e+08
-5.07639e+08
-5.07601e+08
-5.07567e+08
-5.07541e+08
-5.07525e+08
-5.07523e+08
-5.07769e+08
-5.07761e+08
-5.07728e+08
-5.0768e+08
-5.07629e+08
-5.07578e+08
-5.07533e+08
-5.07496e+08
-5.07473e+08
-5.07472e+08
)
;

boundaryField
{
    left
    {
        type            symmetryPlane;
    }
    right
    {
        type            calculated;
        value           nonuniform List<scalar> 
30
(
-5.08222e+08
-5.08225e+08
-5.08216e+08
-5.08197e+08
-5.08169e+08
-5.08131e+08
-5.08084e+08
-5.08029e+08
-5.07965e+08
-5.0788e+08
-5.07786e+08
-5.07697e+08
-5.07621e+08
-5.07567e+08
-5.07533e+08
-5.07515e+08
-5.07506e+08
-5.07505e+08
-5.07508e+08
-5.07514e+08
-5.07524e+08
-5.07536e+08
-5.07548e+08
-5.07558e+08
-5.07561e+08
-5.07556e+08
-5.07541e+08
-5.07522e+08
-5.07515e+08
-5.07616e+08
)
;
    }
    down
    {
        type            symmetryPlane;
    }
    up
    {
        type            calculated;
        value           nonuniform List<scalar> 
30
(
-5.07747e+08
-5.07738e+08
-5.07709e+08
-5.07668e+08
-5.07623e+08
-5.07579e+08
-5.0754e+08
-5.07509e+08
-5.07489e+08
-5.07487e+08
-5.07494e+08
-5.07503e+08
-5.07513e+08
-5.07522e+08
-5.07532e+08
-5.07545e+08
-5.07563e+08
-5.07587e+08
-5.07615e+08
-5.07648e+08
-5.07684e+08
-5.07722e+08
-5.0776e+08
-5.07796e+08
-5.0783e+08
-5.07861e+08
-5.07886e+08
-5.07901e+08
-5.07889e+08
-5.07767e+08
)
;
    }
    hole
    {
        type            calculated;
        value           nonuniform List<scalar> 
20
(
-5.08179e+08
-5.08244e+08
-5.08272e+08
-5.08276e+08
-5.08255e+08
-5.08223e+08
-5.08186e+08
-5.08154e+08
-5.08139e+08
-5.08144e+08
-5.06983e+08
-5.07008e+08
-5.07096e+08
-5.0723e+08
-5.07387e+08
-5.07553e+08
-5.0771e+08
-5.07854e+08
-5.07985e+08
-5.0809e+08
)
;
    }
    frontAndBack
    {
        type            empty;
    }
}


// ************************************************************************* //
