/*--------------------------------*- C++ -*----------------------------------*\
  =========                 |
  \\      /  F ield         | OpenFOAM: The Open Source CFD Toolbox
   \\    /   O peration     | Website:  https://openfoam.org
    \\  /    A nd           | Version:  dev
     \\/     M anipulation  |
\*---------------------------------------------------------------------------*/
FoamFile
{
    version     2.0;
    format      ascii;
    class       volScalarField;
    location    "20";
    object      sigmayy;
}
// * * * * * * * * * * * * * * * * * * * * * * * * * * * * * * * * * * * * * //

dimensions      [1 -1 -2 0 0 0 0];

internalField   nonuniform List<scalar> 
1000
(
-1.14631e+06
-685883
-396362
-187309
-39204.9
62652.4
131868
177978
203591
205356
-964796
-759924
-577816
-406701
-264716
-153166
-70065.5
-10054.6
24197.3
23873.3
-708208
-735883
-662889
-540793
-420540
-315427
-230312
-166384
-126964
-125660
-451321
-638516
-647022
-580235
-493517
-409337
-335871
-279250
-243527
-243690
-224252
-479135
-546125
-527948
-483172
-430801
-381495
-342910
-319375
-326332
-63712
-293185
-379152
-406930
-406024
-392143
-374079
-360862
-357010
-376266
38876.2
-104676
-195131
-255016
-293068
-315990
-331003
-346504
-365984
-401366
77711.9
32189.9
-37080.5
-114174
-178764
-231296
-274756
-316620
-359838
-412005
82696.2
104348
55732.8
-18682.8
-94498.4
-163403
-227436
-289347
-351352
-416404
73036.8
112813
81480.2
16680.6
-58359.3
-134812
-205694
-277973
-346230
-416246
3.26042e+06
1.85693e+06
1.07912e+06
642666
391693
242614
150636
92052.3
54974.3
32765.6
3.0562e+06
1.74556e+06
1.09773e+06
725569
498244
351591
253508
185006
137510
102622
2.4904e+06
1.5821e+06
1.10465e+06
812132
616553
478475
377238
300327
242480
194835
1.68586e+06
1.34523e+06
1.09798e+06
901175
747126
622925
521799
438163
370574
309157
835146
1.04198e+06
1.0303e+06
947358
845303
744158
650509
566403
494210
422072
51029.7
684597
887323
915270
874418
806525
730844
656074
587706
511831
-558655
317236
668302
794237
815494
788796
740855
685729
631050
560832
-982264
-32893.9
400659
595484
671646
687551
673371
645488
612412
556880
-1.21713e+06
-324865
113339
343750
460506
515177
534890
536961
528669
495052
-1.23968e+06
-529780
-150327
78321.9
216925
298792
347231
373742
391405
384842
24252.6
17831.7
9734.74
-5776.59
-32183
-70839.1
-122190
-186771
-265046
-358497
-468390
-597290
-746879
-921106
-1.1219e+06
-1.35288e+06
-1.61168e+06
-1.89675e+06
-2.18431e+06
-2.4428e+06
79417.1
58747.6
41610.7
19274
-11807.4
-52967.4
-105478
-169294
-246110
-336140
-442442
-565660
-710572
-878231
-1.07437e+06
-1.29944e+06
-1.55556e+06
-1.8391e+06
-2.14022e+06
-2.4608e+06
155204
118490
89900.5
57906.5
19635
-26211.6
-80966.6
-144960
-219946
-306433
-407421
-523993
-661013
-820320
-1.0083e+06
-1.22677e+06
-1.4794e+06
-1.76519e+06
-2.0778e+06
-2.42195e+06
250454
196204
153668
109473
61800.9
9555.32
-48484.1
-113097
-185944
-268000
-361994
-469544
-595498
-742879
-918652
-1.12681e+06
-1.37319e+06
-1.65881e+06
-1.97909e+06
-2.33966e+06
346017
278185
222152
165588
107986
48699.7
-13196.3
-78829.3
-149677
-227156
-313530
-410949
-523812
-656075
-815587
-1.00844e+06
-1.24224e+06
-1.52139e+06
-1.8427e+06
-2.21173e+06
424588
351815
285429
218386
151850
85992.7
20300.6
-46516.8
-115763
-189069
-268298
-355640
-455045
-570486
-709905
-880213
-1.09293e+06
-1.35459e+06
-1.66882e+06
-2.03694e+06
472471
406946
335785
261950
188789
117807
49081.4
-18739.2
-86695.1
-156624
-229832
-308602
-395628
-494514
-612001
-754359
-933981
-1.16161e+06
-1.45575e+06
-1.8181e+06
480979
435351
367748
292449
216133
142138
71490.1
2790.34
-63735
-131890
-199738
-273530
-349435
-437512
-531378
-647590
-777584
-959884
-1.19252e+06
-1.56795e+06
445611
431245
376635
306617
231852
156825
84459.5
15927.8
-51419.9
-116472
-184137
-251337
-325584
-399143
-483941
-562382
-656448
-750094
-917363
-1.26281e+06
350535
355458
327212
280252
219098
150329
80557.7
11588.8
-55284.2
-121418
-187666
-255213
-324833
-394945
-464210
-522184
-567862
-590780
-665354
-857972
277321
281186
266804
232562
179916
116190
48467.5
-20425.3
-87149.1
-154720
-219725
-288170
-352042
-419067
-470602
-513840
-513716
-492711
-438702
-406062
155339
182780
185111
166013
126715
72993.2
11324.5
-53556.7
-119037
-184030
-248134
-310658
-370084
-422560
-461996
-477354
-453878
-371550
-231904
22249.3
70128.1
103311
107777
94879.9
64794.1
20942.8
-32016.1
-89955.7
-149788
-209619
-267650
-322262
-370264
-407305
-425584
-414568
-357780
-236575
-16033
380811
6427.59
43704.5
50275.6
40917.6
16528.8
-20550
-66932.2
-118993
-173583
-227859
-279299
-324786
-360513
-380574
-377328
-339226
-251374
-89602
177346
629357
-39096
1512.66
9933.56
3132.83
-17505.9
-49909.9
-91309.1
-138470
-188066
-236763
-281128
-317222
-340208
-343679
-319316
-255964
-139757
47359.8
336024
781918
-69909.6
-28252.5
-17218.3
-21382.2
-38919.8
-67673.4
-105044
-147915
-192820
-235987
-273349
-300241
-311193
-299408
-256535
-172460
-36157
166562
454725
861233
-90398.5
-47662.5
-34059.9
-35405.9
-49900.9
-75344.4
-109126
-148101
-188621
-226586
-257429
-276018
-276482
-251996
-194704
-95909.9
52533.3
257931
532167
894741
-102642
-59389.6
-42752.8
-40963
-52307.5
-74545.7
-104999
-140424
-177009
-210393
-235696
-247483
-239741
-205894
-138857
-31755.4
120232
320857
576484
897313
-107154
-63208.2
-43858.4
-39077
-47413.1
-66672.8
-94131.2
-126474
-159780
-189545
-210713
-217703
-204520
-164932
-92796.6
17093.1
167321
357840
591328
879549
-103061
-59024.5
-37526.2
-30328.5
-36174
-52938.1
-77916.1
-107805
-138694
-166069
-184832
-189370
-173744
-132027
-58759.7
49940.8
194435
372657
586789
843943
-89245.4
-46225.8
-23844.9
-15306.3
-19530.7
-34494.7
-57625.8
-85772.9
-115210
-141564
-159844
-164467
-149512
-109108
-38123.2
66618.4
204570
371815
565215
793810
-66009.8
-25319.2
-3707.4
4767.82
1141.04
-12743.5
-34577.7
-61602.7
-90449.5
-117114
-136807
-144072
-132903
-97238.2
-31596.6
67454.3
198832
356471
536050
733112
-34099.8
1814.37
20786.2
27736.5
23802.2
10549.2
-10217.1
-36392
-65220
-93235.4
-115996
-128241
-123880
-96412.2
-39484.6
51574.1
177008
330937
499945
670766
3197.87
32165.9
46234.5
50337
45589.6
33128.2
13742.1
-11279.6
-40223.8
-70078.7
-97046.9
-116000
-121030
-105179
-60849.8
18926.7
137623
289983
462779
621262
41609.4
60149
67471.7
68015
62884
52150.7
35306.7
12226
-16228.8
-47811.8
-79091.1
-105414
-121205
-119564
-92161.1
-29188.8
78174
232849
420759
599746
73502
79254.8
78541.2
75918.3
71987.4
64735.4
52120.7
32193.2
5423.05
-26898.5
-61267.8
-93856.6
-119622
-132747
-125488
-85879.3
639.376
150807
371002
619825
91168.8
82159.3
73697.4
70092.7
69660
68123.7
61001.4
45865.6
22148.9
-8545.32
-43386.6
-78702.8
-110564
-135150
-146989
-136915
-85023.4
45711.2
298072
682559
87648.4
65006.9
51521.4
50181.2
55306.5
60169.3
59009.7
49550.5
30946.1
5063.18
-25806.9
-58235.2
-89355.5
-117472
-141365
-158310
-151372
-73222.4
184109
770027
58807.4
32172.9
19587.1
21716.6
30505
38443.9
41459.3
37444.3
26557.6
9825.6
-10721.1
-32751.2
-54419.8
-74897.8
-96990.1
-124429
-152527
-140594
39758.1
790990
12251.5
-770.056
-5947.34
-4670.99
-777.8
2835.78
5086.52
5343.31
3841.54
773.495
-3295.31
-7849.59
-12521
-17287.7
-24451.5
-38136.8
-61377.4
-86824.8
-66770.9
245086
-481981
-477428
-464266
-442503
-407412
-352205
-270496
-158836
-19597.2
133306
-545071
-536284
-513794
-480413
-434369
-373002
-293761
-195267
-79631.7
42083.4
-598588
-585405
-553852
-509236
-452867
-385786
-309011
-223948
-132159
-34987.3
-639315
-622621
-584728
-531861
-467279
-394269
-316348
-237504
-161693
-84370.4
-666458
-647668
-605938
-548026
-478475
-401778
-322619
-246649
-179185
-115887
-682281
-662491
-618252
-557451
-485453
-407343
-328145
-253702
-190609
-135165
-689940
-668972
-622969
-560418
-487379
-409321
-331206
-258663
-197627
-147293
-690810
-668524
-621033
-557032
-483324
-405832
-329467
-259066
-200083
-153521
-686589
-663242
-614045
-548198
-473352
-396039
-321252
-253375
-196430
-153463
-678713
-654396
-602758
-534170
-457173
-379087
-305218
-239451
-184829
-145585
-669218
-643023
-588161
-515689
-435285
-355024
-280932
-216663
-164152
-128326
-655868
-627723
-569201
-492251
-407260
-323643
-248069
-184382
-133722
-101408
-638040
-608141
-545765
-463949
-373412
-285244
-206871
-143010
-94087.5
-64884.6
-611055
-579618
-514688
-428346
-333003
-239828
-158446
-93881.8
-46822.1
-21524.4
-572840
-540351
-474009
-384997
-286033
-188961
-104694
-39577.3
4841.84
25366.8
-513043
-482259
-417891
-330483
-231664
-134893
-50093.5
14185.1
54849.1
68557.6
-429964
-403439
-345883
-264458
-172631
-82219.9
-2185.92
59080
95177.2
100526
-318931
-301797
-256266
-187559
-111424
-36881.4
30346.3
84323.4
115184
112330
-173582
-169377
-141920
-97400
-49516.3
-3958.4
38441.5
75175.7
97640.3
89925.8
1070.83
-4633.95
-1530.9
5018.43
10971.6
15944.2
21292.3
27569.8
31665.5
26615.4
)
;

boundaryField
{
    left
    {
        type            symmetryPlane;
    }
    right
    {
        type            calculated;
        value           nonuniform List<scalar> 
30
(
-2.42782e+06
-2.44237e+06
-2.4013e+06
-2.31749e+06
-2.18877e+06
-2.01349e+06
-1.79284e+06
-1.53977e+06
-1.23894e+06
-845608
-411477
3183.95
351398
597695
750829
833660
870166
875662
860086
826297
778343
719580
659842
611529
590488
607462
665348
745269
772278
323854
)
;
    }
    down
    {
        type            symmetryPlane;
    }
    up
    {
        type            calculated;
        value           nonuniform List<scalar> 
30
(
74511.9
71589.8
60587.1
45336.6
28701.8
12521.1
-2094.55
-14411.1
-23034.9
-24957.4
-23513.3
-22778.4
-22530.3
-23276.9
-24035.7
-23957.6
-22490.1
-19381.5
-14647
-8529.44
-1428.55
6142.94
13617.9
20477.9
26369.7
30943.8
33088
30556.6
21678.3
5986.06
)
;
    }
    hole
    {
        type            calculated;
        value           nonuniform List<scalar> 
20
(
-1.04819e+06
-795834
-498413
-227951
-30828.8
75071.4
105062
86715.4
63191
65487.1
3.14622e+06
2.91168e+06
2.2943e+06
1.44735e+06
571923
-198116
-770101
-1.1327e+06
-1.28936e+06
-1.22553e+06
)
;
    }
    frontAndBack
    {
        type            empty;
    }
}


// ************************************************************************* //
