/*--------------------------------*- C++ -*----------------------------------*\
  =========                 |
  \\      /  F ield         | OpenFOAM: The Open Source CFD Toolbox
   \\    /   O peration     | Website:  https://openfoam.org
    \\  /    A nd           | Version:  dev
     \\/     M anipulation  |
\*---------------------------------------------------------------------------*/
FoamFile
{
    version     2.0;
    format      ascii;
    class       volScalarField;
    location    "20";
    object      sigmayz;
}
// * * * * * * * * * * * * * * * * * * * * * * * * * * * * * * * * * * * * * //

dimensions      [1 -1 -2 0 0 0 0];

internalField   nonuniform List<scalar> 
1000
(
6.81559e-10
4.66512e-09
-6.40729e-09
-2.78422e-09
1.09568e-08
3.24588e-09
5.56743e-09
-6.196e-09
-3.81515e-09
0
2.68307e-09
0
-2.33628e-09
4.32868e-09
1.82502e-09
1.55262e-09
-1.7485e-09
-7.74664e-09
0
0
0
0
-1.87837e-09
3.18134e-09
4.88229e-11
-1.97134e-09
-5.47448e-09
1.32971e-09
4.17915e-09
2.63641e-09
1.4102e-09
-2.85982e-09
7.29828e-10
3.17939e-09
1.96153e-09
1.3549e-09
1.39852e-09
3.1086e-09
-3.83381e-09
1.61695e-09
4.39112e-10
8.36327e-11
2.35895e-09
-1.65539e-09
3.72871e-09
2.70271e-09
2.30927e-09
-3.21671e-09
-1.11136e-08
6.82917e-10
1.34917e-09
8.6427e-11
-8.64195e-11
-1.71082e-09
9.56479e-10
-2.13273e-10
-1.04197e-09
4.76483e-11
-4.61979e-10
-1.60614e-09
-1.96374e-09
-2.89177e-09
-5.06397e-10
1.93295e-09
3.28868e-09
-3.32493e-09
-8.79386e-09
5.83025e-10
4.74822e-09
3.00258e-09
-1.33608e-09
6.07418e-10
-1.38356e-10
-3.75955e-09
2.767e-09
3.93938e-09
1.80786e-10
3.03706e-09
-2.3728e-09
-2.66017e-09
6.06674e-10
2.0554e-09
-3.30119e-09
-5.61904e-09
4.26425e-09
3.76216e-09
-4.44635e-09
-6.02782e-10
-1.89873e-10
8.09759e-09
1.88534e-09
2.9101e-09
-3.51135e-09
-3.83078e-09
1.84211e-10
3.9711e-09
-4.65833e-09
-1.70702e-11
5.0255e-09
2.76456e-09
4.37965e-09
1.15737e-10
1.72623e-09
0
-1.6074e-10
2.89424e-09
1.75636e-10
2.65395e-09
-1.11067e-09
-3.44246e-09
4.32264e-09
-1.75353e-09
1.58518e-09
-2.13091e-10
0
2.8877e-09
5.47431e-10
2.00388e-12
-1.21565e-09
-1.49531e-09
2.09701e-09
-1.61801e-09
-1.76659e-09
-3.53772e-10
0
2.81773e-09
3.97002e-09
-2.05307e-09
6.00149e-13
1.75661e-09
-4.22428e-09
-4.13138e-10
-1.74941e-09
0
4.05973e-09
1.79344e-09
-1.20192e-09
-1.9343e-09
-1.18055e-09
-2.19081e-09
4.12135e-09
2.8651e-09
1.66365e-09
1.31928e-09
2.02836e-11
-4.20951e-09
-1.36935e-09
0
-6.81916e-10
-1.02342e-09
5.48672e-09
-1.21605e-09
9.2543e-10
-7.59757e-10
-2.86699e-09
4.41804e-09
1.22407e-11
1.33419e-09
1.28741e-12
2.57618e-09
-5.22236e-10
-2.95804e-11
-4.46981e-11
1.95789e-09
2.00108e-09
2.49724e-09
-4.66535e-09
8.32459e-12
-2.26599e-09
1.70379e-09
-5.77614e-09
-1.62061e-09
9.81892e-10
-9.66553e-10
1.02079e-10
-4.88338e-09
-2.49946e-09
2.52586e-09
1.44713e-09
5.39848e-10
-4.50892e-09
1.32861e-09
-5.67479e-11
-3.82424e-09
-2.36267e-09
-2.3502e-09
3.01323e-09
2.94497e-09
-4.96123e-09
-9.33375e-10
7.87881e-11
1.10763e-09
1.21193e-09
-8.54712e-09
-3.98146e-11
1.93006e-09
6.64916e-09
6.65503e-10
-5.12089e-09
4.47263e-09
-1.14884e-09
-2.26743e-09
-1.10811e-09
1.05077e-11
3.45464e-09
0
0
-1.0457e-11
-1.17544e-09
-2.08684e-11
-3.56206e-09
1.19336e-09
-3.59761e-09
3.16528e-11
1.20034e-09
-3.80353e-14
1.06451e-11
-1.05806e-11
-3.68071e-09
2.52257e-09
-8.52873e-10
-2.25754e-09
-1.10445e-09
-2.39586e-09
1.12374e-09
1.25753e-09
-2.34599e-09
0
-1.17293e-09
-2.38575e-09
-5.98583e-09
-1.3713e-11
-2.35277e-09
-3.04719e-11
-4.34086e-11
3.07056e-11
3.0892e-11
6.15008e-11
2.89632e-11
3.63629e-09
-4.78635e-11
-1.14418e-09
1.42318e-10
1.15159e-09
-2.44477e-09
1.30032e-09
8.99764e-11
-9.45116e-11
-2.31312e-09
1.39635e-10
-4.86307e-11
-1.19026e-10
-2.257e-11
4.75642e-11
-2.6415e-11
-1.66305e-13
4.8197e-11
1.21255e-09
6.22914e-09
-1.39834e-11
0
-1.12874e-09
-5.97582e-11
-1.35005e-10
0
-1.13683e-09
2.41451e-09
1.18281e-10
1.28959e-09
2.29077e-09
2.36758e-09
-2.53885e-09
-3.69247e-09
1.20858e-09
1.18474e-09
6.04209e-11
1.91307e-13
1.08159e-09
-1.27636e-09
2.90547e-09
2.01301e-09
1.15572e-09
1.3045e-09
-1.15824e-09
-3.73884e-09
1.01605e-10
0
-6.54604e-11
3.64859e-09
1.33346e-09
-2.42649e-09
-1.03455e-09
3.77659e-09
1.0669e-09
-1.31276e-09
-1.25121e-09
-2.64611e-09
-1.32664e-09
-2.70952e-09
9.20711e-10
4.9761e-10
-3.05533e-11
1.21379e-09
2.52777e-09
-1.16597e-09
-1.75714e-10
6.6164e-11
1.20883e-09
-3.93722e-09
1.47121e-10
1.66282e-10
2.23353e-09
6.39653e-09
2.00156e-10
-1.24487e-09
2.91126e-09
8.39788e-11
-1.54324e-09
1.26704e-09
-2.68195e-09
-5.77866e-10
-2.84289e-11
-1.18875e-09
6.134e-11
2.38791e-09
-1.21499e-09
-2.63402e-09
3.99174e-09
2.88976e-09
-4.10784e-09
2.61396e-09
-1.79352e-10
-2.84965e-09
-1.22244e-09
4.11875e-09
-1.5919e-10
2.94124e-09
-6.52395e-11
-1.48975e-09
-1.41946e-09
-3.11302e-11
1.48807e-11
-1.10097e-09
0
0
1.38592e-09
-2.64125e-11
-1.71313e-09
-8.34895e-11
1.67665e-09
-9.68621e-11
1.38969e-09
-4.22645e-09
-4.43353e-09
-1.94063e-10
-7.07805e-09
0
2.97237e-09
-1.436e-09
-4.38531e-09
3.13663e-11
-1.11383e-09
1.1928e-09
1.23413e-09
-2.58175e-09
-2.68814e-09
2.60661e-09
-2.50459e-09
3.31762e-10
2.61161e-09
4.43544e-09
-7.83247e-11
-1.34503e-09
1.53036e-10
-2.8758e-09
1.40003e-10
1.40735e-09
1.43726e-09
1.71408e-09
1.78375e-09
3.95154e-10
1.5177e-09
-4.12523e-10
-3.4056e-10
7.53154e-10
9.85606e-10
1.5935e-09
-3.31105e-10
1.96829e-09
2.56908e-10
-7.18946e-10
2.63546e-10
0
4.77471e-09
-1.93763e-10
4.8585e-09
-2.05033e-10
-3.32031e-09
-1.92514e-10
2.91511e-09
8.30561e-11
1.68695e-09
6.9519e-11
-1.70279e-09
5.1776e-09
3.37474e-09
1.7177e-09
-1.71538e-09
-5.1541e-09
-4.53714e-11
-3.37786e-09
-5.22239e-11
0
1.69555e-09
-1.68698e-09
-8.29419e-11
-1.65882e-09
1.06315e-10
1.19864e-10
1.34535e-10
-6.75234e-10
0
2.39895e-12
-6.09113e-24
-1.21261e-23
-2.34892e-23
-1.21317e-23
2.16314e-12
0
-2.53944e-12
-6.81321e-24
3.20262e-12
-3.67817e-12
-1.2122e-23
5.04924e-12
2.36556e-25
-7.14319e-12
-8.625e-12
-6.37683e-24
-6.35728e-24
1.75953e-09
1.76214e-09
1.76457e-09
0
1.7597e-09
3.52135e-09
1.76389e-09
3.52519e-09
-2.53774e-12
3.52195e-09
1.76077e-09
3.52113e-09
3.52077e-09
1.76023e-09
3.52027e-09
3.52025e-09
6.96526e-12
1.76058e-09
1.76121e-09
1.76238e-09
-2.40747e-09
-1.76193e-09
1.76685e-09
-1.82369e-23
1.75699e-09
0
-1.76146e-09
5.16537e-12
-2.43094e-23
-5.92499e-12
1.76067e-09
-5.61725e-25
1.65421e-25
-1.76024e-09
1.06262e-25
1.17444e-11
-1.21831e-23
1.74559e-09
1.76171e-09
1.76305e-09
-3.5234e-09
-1.76424e-09
-3.52355e-09
6.0347e-24
-3.52578e-09
-1.75894e-09
-1.7587e-09
-3.52233e-09
-2.93991e-12
-1.76394e-09
-3.52123e-09
-1.75672e-09
-3.51657e-09
-1.76029e-09
-3.52573e-09
-1.76045e-09
-1.39959e-27
-3.52959e-09
-3.52427e-09
-3.52693e-09
2.28629e-09
1.76165e-09
2.50296e-12
0
-2.6177e-12
-1.76412e-09
1.76408e-09
2.95055e-12
-3.12138e-12
-1.76075e-09
-2.38591e-23
-1.76047e-09
0
1.76037e-09
0
-1.76066e-09
5.85694e-12
-1.21475e-23
-1.21317e-23
-1.21153e-23
-4.89211e-10
-1.76156e-09
2.51519e-12
-1.81971e-23
-1.77684e-23
-1.76136e-09
-1.76122e-09
3.11655e-12
0
-1.76422e-09
1.2208e-23
-1.75656e-09
-4.21446e-12
-1.76048e-09
4.81583e-12
-1.76087e-09
-5.35449e-12
-5.58186e-12
1.21333e-23
1.21813e-23
-1.76138e-09
-1.76148e-09
-1.76151e-09
0
-1.76142e-09
0
-1.7612e-09
0
0
0
-1.76064e-09
0
0
-1.7606e-09
0
0
0
-1.76206e-09
-1.76283e-09
-1.7638e-09
2.17462e-09
0
1.76146e-09
0
1.7614e-09
1.76131e-09
0
0
0
1.76079e-09
1.76069e-09
1.76063e-09
0
0
0
1.7612e-09
0
1.76218e-09
1.76288e-09
1.76375e-09
7.52652e-10
1.76138e-09
5.66319e-24
1.20824e-23
-2.94356e-12
1.76447e-09
1.76457e-09
0
-3.70922e-12
1.75699e-09
-1.21063e-23
1.76477e-09
4.12454e-12
1.76081e-09
-4.1164e-12
1.7613e-09
-1.21033e-23
-3.61847e-12
-1.23303e-23
-3.81953e-25
-1.77417e-12
-2.42339e-23
2.45399e-12
0
-2.99765e-12
-3.24185e-12
3.4649e-12
3.66183e-12
-3.8272e-12
2.42477e-23
2.38506e-23
1.20683e-23
-1.2096e-23
-2.47156e-23
-1.20713e-23
6.02472e-24
3.40494e-12
1.21302e-23
1.21522e-23
1.2139e-23
6.01753e-10
1.81935e-23
1.21249e-23
-1.94883e-26
-3.04339e-12
3.31879e-12
3.56414e-12
0
-3.9379e-12
-4.05169e-12
1.19253e-23
4.09712e-12
4.01655e-12
-2.65299e-26
-3.63279e-12
7.40472e-28
-6.60817e-28
-2.54241e-12
1.21476e-23
1.21379e-23
2.61269e-10
1.76141e-09
2.38229e-12
0
-3.08282e-12
-1.76478e-09
1.76497e-09
3.52633e-09
-4.043e-12
-1.76102e-09
-2.42414e-23
-1.76088e-09
3.52174e-09
1.76093e-09
3.52217e-09
-1.76135e-09
2.55623e-12
0
1.00847e-26
0
-2.26017e-10
-1.76144e-09
2.35326e-12
1.20825e-23
5.85198e-24
-1.76142e-09
-1.76883e-09
3.96935e-12
8.28558e-12
-1.76533e-09
3.63647e-23
-1.76509e-09
-3.961e-12
-1.76093e-09
3.22065e-12
-1.75585e-09
-2.15487e-12
-1.57508e-12
-3.33174e-27
1.01249e-27
4.77151e-27
-1.76146e-09
-2.44454e-23
0
2.40541e-23
1.76143e-09
-1.76139e-09
-3.52265e-09
0
1.76115e-09
-1.20624e-23
1.76097e-09
-3.52184e-09
-1.76092e-09
-3.52197e-09
1.76116e-09
0
-2.44514e-23
-2.44656e-23
-2.4467e-23
1.3537e-12
-6.4119e-27
1.8375e-23
1.20821e-23
-3.15965e-12
3.52079e-12
3.84355e-12
0
-4.31613e-12
-4.42688e-12
1.21681e-23
4.29671e-12
4.01992e-12
0
-2.97973e-12
-1.21137e-23
2.41984e-23
-5.68105e-13
1.23273e-23
-1.19417e-23
-1.76139e-09
0
-1.2519e-23
0
3.96516e-25
-1.21e-23
0
0
0
1.21389e-23
-1.17164e-23
1.21225e-23
0
0
0
1.21214e-23
0
-1.25162e-23
-1.21293e-23
-1.21368e-23
1.69482e-10
1.75926e-09
1.92378e-25
6.04905e-24
-3.12266e-12
1.76476e-09
1.76515e-09
0
-4.41046e-12
1.75675e-09
1.19122e-23
1.76567e-09
4.15096e-12
1.76114e-09
-3.00301e-12
1.76104e-09
-1.20913e-23
4.64261e-13
2.48414e-23
3.91555e-25
1.75952e-09
1.76096e-09
-1.75857e-09
0
-1.7641e-09
-3.43171e-12
1.76497e-09
4.13638e-12
-4.40056e-12
9.31503e-26
-1.76134e-09
9.9064e-28
1.21002e-23
1.76141e-09
1.21003e-23
6.03499e-24
9.71544e-13
-1.76124e-09
-1.76159e-09
-1.76347e-09
5.93969e-10
1.08542e-12
1.19745e-12
0
-1.28431e-12
-1.2643e-12
1.21708e-12
1.15518e-12
-1.09044e-12
-2.00382e-24
-6.78968e-27
-2.01773e-24
-4.0359e-24
-4.04228e-24
-4.03589e-24
-4.04191e-24
8.34444e-13
0
0
0
-5.63046e-09
-4.95916e-09
-2.50905e-09
1.91213e-10
2.47491e-09
5.02785e-09
-4.65873e-09
1.0136e-09
7.61633e-10
0
-2.76239e-09
-8.53501e-09
-5.69306e-09
-8.24523e-09
2.68251e-09
-9.79238e-10
6.86803e-09
-3.6062e-09
2.20982e-09
-6.07195e-10
5.45935e-09
5.7441e-09
2.9595e-09
-1.02642e-09
-3.09896e-09
7.7724e-10
6.3162e-10
-2.85362e-09
1.84676e-10
-3.32321e-09
-7.92367e-44
2.53402e-09
8.06304e-09
8.04116e-09
-2.94921e-09
1.13228e-09
-8.07852e-09
-1.49728e-09
2.58708e-10
-6.65224e-10
-7.17364e-11
-5.4068e-09
0
2.89364e-09
2.97921e-10
-2.44392e-09
4.71009e-09
6.06148e-09
2.29958e-09
6.92078e-09
1.35558e-10
-2.96415e-09
-3.02828e-09
2.85829e-10
2.77354e-09
-4.81435e-09
-5.53123e-10
1.6964e-09
-6.32144e-09
5.26526e-10
-6.87795e-44
7.95251e-09
-2.81264e-09
-1.95402e-10
1.05445e-09
1.30222e-10
9.25585e-10
-8.33729e-10
-5.98036e-09
-3.90144e-09
2.59114e-09
2.70123e-09
-6.42596e-11
-2.46417e-09
5.15629e-09
4.37697e-09
1.11033e-10
1.63564e-09
1.01082e-08
6.05657e-10
-5.26472e-09
-7.73761e-09
1.11527e-10
-7.13976e-10
-4.64353e-09
3.25687e-09
-7.26717e-09
4.95708e-09
1.05893e-08
7.51909e-09
-7.89723e-09
-8.04358e-09
2.19947e-09
5.01753e-10
-1.24159e-08
-4.46735e-09
-1.11184e-09
-4.19996e-09
-6.12044e-09
-1.15464e-09
1.30475e-08
7.48472e-09
2.42178e-09
-1.9652e-09
5.23157e-09
-7.67463e-09
-6.01528e-10
-6.45422e-09
-6.13555e-09
-5.04558e-11
5.32181e-09
7.83903e-09
1.3008e-10
1.29614e-10
7.70394e-09
4.56768e-10
1.50915e-09
1.43679e-09
5.42399e-10
1.08958e-09
-7.81151e-09
-2.59963e-09
-2.4079e-09
-4.28004e-11
2.86098e-09
4.47496e-09
5.93343e-09
1.05605e-11
1.06447e-11
-5.48058e-09
-4.14736e-44
-2.55826e-09
-2.52024e-09
-1.38053e-10
-2.34642e-09
-2.5667e-11
-2.16549e-09
2.59884e-10
4.0169e-09
-2.14481e-09
-3.72176e-44
0
7.49651e-09
0
5.04849e-09
-4.68331e-09
-2.81976e-09
1.34594e-09
4.33941e-10
2.87053e-09
2.54166e-09
-1.39431e-10
-4.87427e-09
-7.75247e-11
3.53345e-10
4.89611e-09
-4.90471e-09
-2.07631e-09
-6.08869e-09
-2.60739e-10
2.72904e-11
9.03405e-11
-7.50656e-09
7.16435e-09
-7.10256e-09
4.82208e-09
-5.66167e-11
-2.40639e-09
2.0184e-09
1.92397e-09
-9.11549e-12
-4.99606e-09
1.22194e-08
2.47988e-09
1.61387e-10
0
4.40777e-09
-1.22088e-10
-2.68421e-10
2.47598e-11
-4.9723e-09
2.41338e-09
-5.16898e-12
-7.15598e-09
2.37998e-09
2.27917e-09
0
2.1203e-09
-2.02979e-09
1.53885e-11
-2.50743e-09
2.48567e-09
-2.45193e-09
-8.07035e-10
7.77696e-10
7.66236e-10
-1.07126e-12
7.07263e-10
-1.14416e-11
1.28311e-09
)
;

boundaryField
{
    left
    {
        type            symmetryPlane;
    }
    right
    {
        type            calculated;
        value           nonuniform List<scalar> 
30
(
2.52257e-09
3.63629e-09
-1.39834e-11
2.90547e-09
9.20711e-10
-2.68195e-09
-1.41946e-09
-4.38531e-09
1.78375e-09
2.91511e-09
1.34535e-10
-6.35728e-24
1.76238e-09
1.76305e-09
-3.52693e-09
-1.21153e-23
1.21813e-23
-1.7638e-09
1.76375e-09
-3.81953e-25
1.2139e-23
1.21379e-23
0
1.01249e-27
-2.4467e-23
-1.19417e-23
-1.21368e-23
3.91555e-25
-1.76347e-09
0
)
;
    }
    down
    {
        type            symmetryPlane;
    }
    up
    {
        type            calculated;
        value           nonuniform List<scalar> 
30
(
2.36658e-12
-4.71656e-12
3.70983e-12
-1.75376e-12
-2.45339e-12
2.61112e-12
-5.85493e-14
5.5081e-13
-1.72913e-12
2.55142e-13
1.21859e-12
6.12533e-13
6.2078e-13
0
-4.30456e-13
-2.16853e-13
-3.90562e-14
-3.002e-13
5.29881e-13
-1.15716e-26
5.36397e-27
-1.84019e-27
-2.9183e-27
5.11413e-28
-2.12459e-27
-3.18573e-27
7.12461e-13
0
0
0
)
;
    }
    hole
    {
        type            calculated;
        value           nonuniform List<scalar> 
20
(
-9.04868e-12
2.63369e-09
0
1.6544e-09
8.94084e-10
2.13834e-09
-5.78763e-10
-1.25141e-09
-5.03772e-10
-1.72291e-10
4.31969e-09
4.25291e-09
2.10172e-09
-4.10917e-09
3.74614e-09
5.83268e-09
-3.27623e-10
-5.29208e-09
-5.02524e-09
-1.55093e-12
)
;
    }
    frontAndBack
    {
        type            empty;
    }
}


// ************************************************************************* //
