/*--------------------------------*- C++ -*----------------------------------*\
  =========                 |
  \\      /  F ield         | OpenFOAM: The Open Source CFD Toolbox
   \\    /   O peration     | Website:  https://openfoam.org
    \\  /    A nd           | Version:  dev
     \\/     M anipulation  |
\*---------------------------------------------------------------------------*/
FoamFile
{
    version     2.0;
    format      ascii;
    class       volScalarField;
    location    "20";
    object      sigmaEq;
}
// * * * * * * * * * * * * * * * * * * * * * * * * * * * * * * * * * * * * * //

dimensions      [1 -1 -2 0 0 0 0];

internalField   nonuniform List<scalar> 
1000
(
5.07037e+08
5.07167e+08
5.07251e+08
5.07317e+08
5.07369e+08
5.0741e+08
5.07442e+08
5.0747e+08
5.07491e+08
5.07509e+08
5.06964e+08
5.071e+08
5.07191e+08
5.07263e+08
5.0732e+08
5.07365e+08
5.074e+08
5.07428e+08
5.07451e+08
5.07463e+08
5.06941e+08
5.07071e+08
5.0716e+08
5.07233e+08
5.0729e+08
5.07335e+08
5.07371e+08
5.07401e+08
5.07424e+08
5.07437e+08
5.06952e+08
5.07069e+08
5.07153e+08
5.07221e+08
5.07275e+08
5.07319e+08
5.07354e+08
5.07384e+08
5.07409e+08
5.07423e+08
5.06995e+08
5.07089e+08
5.07163e+08
5.07223e+08
5.07272e+08
5.07313e+08
5.07346e+08
5.07375e+08
5.07401e+08
5.07416e+08
5.07052e+08
5.07121e+08
5.07184e+08
5.07235e+08
5.07278e+08
5.07314e+08
5.07345e+08
5.07372e+08
5.07397e+08
5.07414e+08
5.07114e+08
5.07159e+08
5.07209e+08
5.07252e+08
5.07288e+08
5.0732e+08
5.07348e+08
5.07373e+08
5.07396e+08
5.07414e+08
5.07161e+08
5.0719e+08
5.07233e+08
5.07269e+08
5.073e+08
5.07327e+08
5.07352e+08
5.07375e+08
5.07397e+08
5.07415e+08
5.07182e+08
5.07213e+08
5.0725e+08
5.07281e+08
5.07309e+08
5.07334e+08
5.07356e+08
5.07377e+08
5.07397e+08
5.07415e+08
5.07171e+08
5.07225e+08
5.07258e+08
5.07285e+08
5.07311e+08
5.07334e+08
5.07357e+08
5.07377e+08
5.07399e+08
5.07418e+08
5.08659e+08
5.08424e+08
5.08261e+08
5.08133e+08
5.08029e+08
5.07946e+08
5.07877e+08
5.0782e+08
5.07771e+08
5.07728e+08
5.08625e+08
5.08375e+08
5.08232e+08
5.08115e+08
5.0802e+08
5.07941e+08
5.07876e+08
5.0782e+08
5.07773e+08
5.07729e+08
5.08504e+08
5.08285e+08
5.08156e+08
5.08056e+08
5.07973e+08
5.07905e+08
5.07848e+08
5.078e+08
5.07757e+08
5.07715e+08
5.08308e+08
5.0815e+08
5.08054e+08
5.07974e+08
5.07909e+08
5.07855e+08
5.0781e+08
5.0777e+08
5.07735e+08
5.07696e+08
5.08086e+08
5.0799e+08
5.07924e+08
5.07874e+08
5.07831e+08
5.07795e+08
5.07763e+08
5.07734e+08
5.07708e+08
5.07672e+08
5.07851e+08
5.07819e+08
5.0779e+08
5.07766e+08
5.07746e+08
5.07727e+08
5.0771e+08
5.07693e+08
5.07676e+08
5.07645e+08
5.07639e+08
5.07656e+08
5.07657e+08
5.07659e+08
5.07659e+08
5.07657e+08
5.07654e+08
5.0765e+08
5.07643e+08
5.07618e+08
5.07447e+08
5.07505e+08
5.07534e+08
5.07558e+08
5.07576e+08
5.07589e+08
5.07599e+08
5.07607e+08
5.07611e+08
5.07594e+08
5.07275e+08
5.0737e+08
5.07423e+08
5.07465e+08
5.07498e+08
5.07523e+08
5.07545e+08
5.07563e+08
5.07578e+08
5.07573e+08
5.07144e+08
5.07262e+08
5.07332e+08
5.07387e+08
5.0743e+08
5.07464e+08
5.07494e+08
5.07519e+08
5.07545e+08
5.07559e+08
5.07693e+08
5.07661e+08
5.07633e+08
5.07607e+08
5.07582e+08
5.07557e+08
5.07531e+08
5.07505e+08
5.07477e+08
5.07448e+08
5.07417e+08
5.07384e+08
5.07349e+08
5.07312e+08
5.07273e+08
5.07233e+08
5.07191e+08
5.07145e+08
5.071e+08
5.07062e+08
5.07692e+08
5.0766e+08
5.07634e+08
5.07608e+08
5.07584e+08
5.0756e+08
5.07535e+08
5.0751e+08
5.07483e+08
5.07455e+08
5.07425e+08
5.07393e+08
5.07359e+08
5.07323e+08
5.07285e+08
5.07245e+08
5.07203e+08
5.07156e+08
5.07107e+08
5.07055e+08
5.07679e+08
5.07649e+08
5.07627e+08
5.07606e+08
5.07584e+08
5.07562e+08
5.07539e+08
5.07515e+08
5.0749e+08
5.07463e+08
5.07435e+08
5.07404e+08
5.07371e+08
5.07336e+08
5.07299e+08
5.07259e+08
5.07217e+08
5.07169e+08
5.07118e+08
5.07062e+08
5.07659e+08
5.07634e+08
5.07618e+08
5.07602e+08
5.07584e+08
5.07565e+08
5.07545e+08
5.07523e+08
5.075e+08
5.07476e+08
5.07449e+08
5.0742e+08
5.07389e+08
5.07356e+08
5.07319e+08
5.07281e+08
5.07238e+08
5.07191e+08
5.07139e+08
5.07082e+08
5.07635e+08
5.07615e+08
5.07607e+08
5.07597e+08
5.07584e+08
5.07569e+08
5.07552e+08
5.07533e+08
5.07512e+08
5.0749e+08
5.07466e+08
5.0744e+08
5.07411e+08
5.07381e+08
5.07347e+08
5.0731e+08
5.07269e+08
5.07222e+08
5.07171e+08
5.07113e+08
5.0761e+08
5.07596e+08
5.07595e+08
5.0759e+08
5.07582e+08
5.07572e+08
5.07558e+08
5.07543e+08
5.07526e+08
5.07507e+08
5.07486e+08
5.07463e+08
5.07438e+08
5.0741e+08
5.07379e+08
5.07346e+08
5.07307e+08
5.07263e+08
5.07213e+08
5.07157e+08
5.07584e+08
5.07578e+08
5.07582e+08
5.07583e+08
5.0758e+08
5.07574e+08
5.07565e+08
5.07553e+08
5.07539e+08
5.07524e+08
5.07507e+08
5.07488e+08
5.07467e+08
5.07443e+08
5.07417e+08
5.07387e+08
5.07353e+08
5.07312e+08
5.07263e+08
5.0721e+08
5.07563e+08
5.07563e+08
5.07572e+08
5.07577e+08
5.07578e+08
5.07575e+08
5.07569e+08
5.07561e+08
5.07552e+08
5.0754e+08
5.07527e+08
5.07512e+08
5.07496e+08
5.07477e+08
5.07457e+08
5.07431e+08
5.07404e+08
5.07367e+08
5.07328e+08
5.0727e+08
5.07548e+08
5.07555e+08
5.07565e+08
5.07571e+08
5.07575e+08
5.07574e+08
5.07572e+08
5.07567e+08
5.07561e+08
5.07553e+08
5.07544e+08
5.07534e+08
5.07522e+08
5.07509e+08
5.07493e+08
5.07477e+08
5.07455e+08
5.07435e+08
5.07407e+08
5.0735e+08
5.07535e+08
5.07542e+08
5.07552e+08
5.07561e+08
5.07568e+08
5.07571e+08
5.07571e+08
5.0757e+08
5.07567e+08
5.07563e+08
5.07557e+08
5.07551e+08
5.07544e+08
5.07536e+08
5.07527e+08
5.07519e+08
5.0751e+08
5.07509e+08
5.07497e+08
5.07462e+08
5.07569e+08
5.07564e+08
5.07563e+08
5.07567e+08
5.0757e+08
5.07571e+08
5.07572e+08
5.07571e+08
5.0757e+08
5.07567e+08
5.07565e+08
5.07561e+08
5.07559e+08
5.07555e+08
5.07555e+08
5.07553e+08
5.0756e+08
5.07568e+08
5.07586e+08
5.07591e+08
5.07556e+08
5.07568e+08
5.07572e+08
5.07576e+08
5.07579e+08
5.07581e+08
5.07581e+08
5.07581e+08
5.07581e+08
5.0758e+08
5.0758e+08
5.0758e+08
5.07581e+08
5.07583e+08
5.07588e+08
5.07596e+08
5.0761e+08
5.07636e+08
5.07667e+08
5.07711e+08
5.0755e+08
5.07569e+08
5.07574e+08
5.07579e+08
5.07584e+08
5.07587e+08
5.07589e+08
5.07591e+08
5.07593e+08
5.07595e+08
5.07598e+08
5.07601e+08
5.07607e+08
5.07615e+08
5.07626e+08
5.07642e+08
5.07665e+08
5.07697e+08
5.07742e+08
5.07811e+08
5.07548e+08
5.07569e+08
5.07577e+08
5.07584e+08
5.07589e+08
5.07594e+08
5.07598e+08
5.07602e+08
5.07606e+08
5.0761e+08
5.07616e+08
5.07623e+08
5.07632e+08
5.07644e+08
5.07661e+08
5.07682e+08
5.07711e+08
5.07751e+08
5.078e+08
5.07876e+08
5.07551e+08
5.07573e+08
5.07582e+08
5.0759e+08
5.07597e+08
5.07603e+08
5.07608e+08
5.07613e+08
5.07619e+08
5.07625e+08
5.07633e+08
5.07642e+08
5.07655e+08
5.0767e+08
5.0769e+08
5.07716e+08
5.07749e+08
5.0779e+08
5.07841e+08
5.07915e+08
5.07558e+08
5.07579e+08
5.07589e+08
5.07598e+08
5.07605e+08
5.07612e+08
5.07619e+08
5.07625e+08
5.07632e+08
5.0764e+08
5.07649e+08
5.0766e+08
5.07675e+08
5.07693e+08
5.07715e+08
5.07743e+08
5.07777e+08
5.07819e+08
5.07868e+08
5.07932e+08
5.07569e+08
5.07588e+08
5.07598e+08
5.07607e+08
5.07616e+08
5.07623e+08
5.0763e+08
5.07637e+08
5.07645e+08
5.07654e+08
5.07664e+08
5.07676e+08
5.07692e+08
5.07711e+08
5.07734e+08
5.07763e+08
5.07797e+08
5.07837e+08
5.07882e+08
5.07939e+08
5.07584e+08
5.07601e+08
5.0761e+08
5.07619e+08
5.07627e+08
5.07635e+08
5.07642e+08
5.0765e+08
5.07658e+08
5.07667e+08
5.07677e+08
5.0769e+08
5.07706e+08
5.07725e+08
5.07748e+08
5.07776e+08
5.0781e+08
5.07847e+08
5.07889e+08
5.07937e+08
5.07601e+08
5.07616e+08
5.07625e+08
5.07633e+08
5.07641e+08
5.07648e+08
5.07655e+08
5.07662e+08
5.0767e+08
5.07679e+08
5.07689e+08
5.07702e+08
5.07717e+08
5.07735e+08
5.07758e+08
5.07785e+08
5.07816e+08
5.07851e+08
5.07888e+08
5.07931e+08
5.07621e+08
5.07633e+08
5.07641e+08
5.07649e+08
5.07656e+08
5.07662e+08
5.07669e+08
5.07675e+08
5.07682e+08
5.0769e+08
5.07699e+08
5.07711e+08
5.07725e+08
5.07742e+08
5.07763e+08
5.07788e+08
5.07817e+08
5.07849e+08
5.07883e+08
5.07921e+08
5.07643e+08
5.07653e+08
5.0766e+08
5.07666e+08
5.07672e+08
5.07677e+08
5.07682e+08
5.07687e+08
5.07693e+08
5.07699e+08
5.07707e+08
5.07717e+08
5.0773e+08
5.07745e+08
5.07765e+08
5.07788e+08
5.07815e+08
5.07844e+08
5.07874e+08
5.07907e+08
5.07666e+08
5.07674e+08
5.0768e+08
5.07685e+08
5.07689e+08
5.07693e+08
5.07697e+08
5.077e+08
5.07703e+08
5.07708e+08
5.07713e+08
5.07721e+08
5.07732e+08
5.07745e+08
5.07762e+08
5.07783e+08
5.07808e+08
5.07835e+08
5.07863e+08
5.07891e+08
5.0769e+08
5.07697e+08
5.07701e+08
5.07705e+08
5.07708e+08
5.0771e+08
5.07711e+08
5.07712e+08
5.07713e+08
5.07715e+08
5.07718e+08
5.07723e+08
5.0773e+08
5.07741e+08
5.07756e+08
5.07775e+08
5.07798e+08
5.07824e+08
5.0785e+08
5.07873e+08
5.07716e+08
5.07721e+08
5.07725e+08
5.07727e+08
5.07728e+08
5.07728e+08
5.07726e+08
5.07724e+08
5.07722e+08
5.07721e+08
5.0772e+08
5.07721e+08
5.07725e+08
5.07733e+08
5.07745e+08
5.07762e+08
5.07785e+08
5.07811e+08
5.07838e+08
5.07861e+08
5.07744e+08
5.07747e+08
5.0775e+08
5.0775e+08
5.07749e+08
5.07746e+08
5.07742e+08
5.07737e+08
5.07731e+08
5.07725e+08
5.0772e+08
5.07717e+08
5.07717e+08
5.0772e+08
5.07729e+08
5.07744e+08
5.07767e+08
5.07796e+08
5.07828e+08
5.07857e+08
5.07774e+08
5.07775e+08
5.07777e+08
5.07775e+08
5.07772e+08
5.07766e+08
5.07759e+08
5.0775e+08
5.07739e+08
5.07729e+08
5.07718e+08
5.0771e+08
5.07704e+08
5.07702e+08
5.07706e+08
5.07719e+08
5.07742e+08
5.07775e+08
5.07819e+08
5.07866e+08
5.07807e+08
5.07807e+08
5.07806e+08
5.07802e+08
5.07796e+08
5.07788e+08
5.07777e+08
5.07763e+08
5.07748e+08
5.07732e+08
5.07715e+08
5.07699e+08
5.07686e+08
5.07677e+08
5.07675e+08
5.07683e+08
5.07704e+08
5.07743e+08
5.07804e+08
5.07889e+08
5.07844e+08
5.07841e+08
5.07838e+08
5.07832e+08
5.07823e+08
5.07812e+08
5.07797e+08
5.07779e+08
5.07758e+08
5.07735e+08
5.0771e+08
5.07686e+08
5.07664e+08
5.07646e+08
5.07634e+08
5.07632e+08
5.07646e+08
5.07686e+08
5.07768e+08
5.07921e+08
5.07886e+08
5.07881e+08
5.07873e+08
5.07864e+08
5.07853e+08
5.07839e+08
5.07821e+08
5.07798e+08
5.07771e+08
5.07739e+08
5.07705e+08
5.07671e+08
5.07637e+08
5.07606e+08
5.0758e+08
5.07563e+08
5.07559e+08
5.07588e+08
5.07678e+08
5.07922e+08
5.07936e+08
5.07921e+08
5.07908e+08
5.07898e+08
5.07888e+08
5.07873e+08
5.07853e+08
5.07824e+08
5.07789e+08
5.07747e+08
5.07701e+08
5.07652e+08
5.07604e+08
5.07558e+08
5.07514e+08
5.07472e+08
5.07433e+08
5.07408e+08
5.07432e+08
5.07689e+08
5.07439e+08
5.07436e+08
5.07436e+08
5.07436e+08
5.07436e+08
5.07437e+08
5.07442e+08
5.07454e+08
5.07476e+08
5.0751e+08
5.07459e+08
5.07457e+08
5.07458e+08
5.07459e+08
5.0746e+08
5.07463e+08
5.07467e+08
5.07475e+08
5.07488e+08
5.07511e+08
5.07478e+08
5.07476e+08
5.07478e+08
5.0748e+08
5.07482e+08
5.07483e+08
5.07484e+08
5.07486e+08
5.07489e+08
5.07505e+08
5.07495e+08
5.07494e+08
5.07497e+08
5.075e+08
5.07502e+08
5.07503e+08
5.07503e+08
5.07501e+08
5.07498e+08
5.07508e+08
5.07511e+08
5.07511e+08
5.07515e+08
5.07519e+08
5.07522e+08
5.07523e+08
5.07522e+08
5.07519e+08
5.07512e+08
5.07517e+08
5.07527e+08
5.07527e+08
5.07532e+08
5.07536e+08
5.0754e+08
5.07542e+08
5.07542e+08
5.07538e+08
5.07529e+08
5.07532e+08
5.07542e+08
5.07543e+08
5.07548e+08
5.07553e+08
5.07558e+08
5.07561e+08
5.07561e+08
5.07558e+08
5.0755e+08
5.07549e+08
5.07556e+08
5.07558e+08
5.07563e+08
5.0757e+08
5.07575e+08
5.07579e+08
5.07581e+08
5.07579e+08
5.07572e+08
5.07569e+08
5.0757e+08
5.07572e+08
5.07579e+08
5.07586e+08
5.07592e+08
5.07598e+08
5.07601e+08
5.076e+08
5.07594e+08
5.07591e+08
5.07584e+08
5.07586e+08
5.07593e+08
5.07602e+08
5.0761e+08
5.07616e+08
5.0762e+08
5.07621e+08
5.07618e+08
5.07615e+08
5.07596e+08
5.07599e+08
5.07607e+08
5.07617e+08
5.07626e+08
5.07635e+08
5.07641e+08
5.07643e+08
5.07642e+08
5.07639e+08
5.07609e+08
5.07612e+08
5.07621e+08
5.07632e+08
5.07643e+08
5.07653e+08
5.07661e+08
5.07666e+08
5.07667e+08
5.07664e+08
5.0762e+08
5.07624e+08
5.07634e+08
5.07647e+08
5.0766e+08
5.07673e+08
5.07683e+08
5.07689e+08
5.07692e+08
5.0769e+08
5.0763e+08
5.07635e+08
5.07646e+08
5.07661e+08
5.07677e+08
5.07692e+08
5.07704e+08
5.07713e+08
5.07718e+08
5.07716e+08
5.07638e+08
5.07643e+08
5.07657e+08
5.07674e+08
5.07694e+08
5.07712e+08
5.07727e+08
5.07738e+08
5.07745e+08
5.07745e+08
5.07643e+08
5.0765e+08
5.07666e+08
5.07687e+08
5.0771e+08
5.07732e+08
5.07751e+08
5.07765e+08
5.07774e+08
5.07775e+08
5.07643e+08
5.07653e+08
5.07672e+08
5.07697e+08
5.07726e+08
5.07753e+08
5.07777e+08
5.07795e+08
5.07806e+08
5.07809e+08
5.07635e+08
5.07649e+08
5.07672e+08
5.07704e+08
5.0774e+08
5.07776e+08
5.07806e+08
5.07829e+08
5.07843e+08
5.07847e+08
5.07621e+08
5.07639e+08
5.07667e+08
5.07708e+08
5.07754e+08
5.07799e+08
5.07839e+08
5.07869e+08
5.07887e+08
5.07891e+08
5.07603e+08
5.07612e+08
5.07651e+08
5.07707e+08
5.07767e+08
5.07826e+08
5.07879e+08
5.07922e+08
5.07949e+08
5.07951e+08
)
;

boundaryField
{
    left
    {
        type            symmetryPlane;
    }
    right
    {
        type            calculated;
        value           nonuniform List<scalar> 
30
(
5.0708e+08
5.07076e+08
5.07087e+08
5.07108e+08
5.0714e+08
5.07184e+08
5.07239e+08
5.07303e+08
5.07378e+08
5.07477e+08
5.07585e+08
5.0769e+08
5.07777e+08
5.0784e+08
5.07879e+08
5.079e+08
5.0791e+08
5.07912e+08
5.07908e+08
5.079e+08
5.07889e+08
5.07875e+08
5.07861e+08
5.0785e+08
5.07846e+08
5.07852e+08
5.07869e+08
5.07892e+08
5.079e+08
5.07781e+08
)
;
    }
    down
    {
        type            symmetryPlane;
    }
    up
    {
        type            calculated;
        value           nonuniform List<scalar> 
30
(
5.07629e+08
5.07639e+08
5.07673e+08
5.07721e+08
5.07774e+08
5.07825e+08
5.07871e+08
5.07907e+08
5.0793e+08
5.07933e+08
5.07924e+08
5.07913e+08
5.07902e+08
5.07891e+08
5.0788e+08
5.07864e+08
5.07843e+08
5.07816e+08
5.07782e+08
5.07744e+08
5.07701e+08
5.07657e+08
5.07613e+08
5.07571e+08
5.07532e+08
5.07496e+08
5.07467e+08
5.0745e+08
5.07463e+08
5.07606e+08
)
;
    }
    hole
    {
        type            calculated;
        value           nonuniform List<scalar> 
20
(
5.07129e+08
5.07054e+08
5.07021e+08
5.07018e+08
5.07041e+08
5.07078e+08
5.07121e+08
5.07157e+08
5.07174e+08
5.07168e+08
5.08528e+08
5.08498e+08
5.08395e+08
5.08237e+08
5.08052e+08
5.07857e+08
5.07674e+08
5.07506e+08
5.07353e+08
5.07231e+08
)
;
    }
    frontAndBack
    {
        type            empty;
    }
}


// ************************************************************************* //
