/*--------------------------------*- C++ -*----------------------------------*\
  =========                 |
  \\      /  F ield         | OpenFOAM: The Open Source CFD Toolbox
   \\    /   O peration     | Website:  https://openfoam.org
    \\  /    A nd           | Version:  dev
     \\/     M anipulation  |
\*---------------------------------------------------------------------------*/
FoamFile
{
    version     2.0;
    format      ascii;
    class       volVectorField;
    location    "60";
    object      D;
}
// * * * * * * * * * * * * * * * * * * * * * * * * * * * * * * * * * * * * * //

dimensions      [0 1 0 0 0 0 0];

internalField   nonuniform List<vector> 
1000
(
(0.00117573 0.00127252 0)
(0.0012876 0.00139348 0)
(0.00139948 0.00151446 0)
(0.00151135 0.00163545 0)
(0.00162323 0.00175646 0)
(0.00173512 0.00187748 0)
(0.00184701 0.0019985 0)
(0.0019589 0.00211953 0)
(0.00207079 0.00224056 0)
(0.00218268 0.0023616 0)
(0.00107232 0.0013609 0)
(0.00117436 0.00149026 0)
(0.00127639 0.00161964 0)
(0.00137843 0.00174904 0)
(0.00148047 0.00187846 0)
(0.00158251 0.00200788 0)
(0.00168456 0.0021373 0)
(0.00178661 0.00226674 0)
(0.00188866 0.00239618 0)
(0.00199071 0.00252562 0)
(0.000962297 0.00144088 0)
(0.00105387 0.00157785 0)
(0.00114543 0.00171485 0)
(0.001237 0.00185185 0)
(0.00132857 0.00198887 0)
(0.00142015 0.0021259 0)
(0.00151172 0.00226294 0)
(0.0016033 0.00239998 0)
(0.00169488 0.00253702 0)
(0.00178647 0.00267407 0)
(0.000846338 0.00151198 0)
(0.000926876 0.00165572 0)
(0.00100741 0.00179948 0)
(0.00108795 0.00194325 0)
(0.00116849 0.00208703 0)
(0.00124902 0.00223082 0)
(0.00132957 0.00237462 0)
(0.00141011 0.00251842 0)
(0.00149065 0.00266223 0)
(0.0015712 0.00280604 0)
(0.000725161 0.00157376 0)
(0.000794169 0.00172338 0)
(0.000863175 0.00187301 0)
(0.000932181 0.00202266 0)
(0.00100119 0.00217231 0)
(0.0010702 0.00232198 0)
(0.00113921 0.00247165 0)
(0.00120822 0.00262134 0)
(0.00127723 0.00277102 0)
(0.00134625 0.00292071 0)
(0.000599512 0.00162584 0)
(0.000656564 0.00178041 0)
(0.000713615 0.001935 0)
(0.000770664 0.0020896 0)
(0.000827714 0.00224421 0)
(0.000884765 0.00239883 0)
(0.000941818 0.00255345 0)
(0.000998872 0.00270809 0)
(0.00105593 0.00286273 0)
(0.00111298 0.00301737 0)
(0.000470166 0.00166789 0)
(0.00051491 0.00182646 0)
(0.000559652 0.00198505 0)
(0.000604393 0.00214365 0)
(0.000649134 0.00230226 0)
(0.000693877 0.00246088 0)
(0.00073862 0.00261951 0)
(0.000783364 0.00277814 0)
(0.00082811 0.00293678 0)
(0.000872857 0.00309543 0)
(0.00033792 0.00169966 0)
(0.000370079 0.00186126 0)
(0.000402236 0.00202287 0)
(0.000434393 0.00218449 0)
(0.00046655 0.00234612 0)
(0.000498707 0.00250776 0)
(0.000530865 0.00266941 0)
(0.000563024 0.00283107 0)
(0.000595184 0.00299273 0)
(0.000627345 0.00315439 0)
(0.000203589 0.00172095 0)
(0.000222964 0.00188457 0)
(0.000242339 0.0020482 0)
(0.000261712 0.00221185 0)
(0.000281086 0.00237551 0)
(0.00030046 0.00253918 0)
(0.000319835 0.00270285 0)
(0.00033921 0.00286653 0)
(0.000358586 0.00303022 0)
(0.000377962 0.00319391 0)
(6.80031e-05 0.00173163 0)
(7.44746e-05 0.00189626 0)
(8.0946e-05 0.00206091 0)
(8.74173e-05 0.00222558 0)
(9.38886e-05 0.00239025 0)
(0.00010036 0.00255493 0)
(0.000106831 0.00271962 0)
(0.000113303 0.00288432 0)
(0.000119775 0.00304902 0)
(0.000126247 0.00321372 0)
(0.0017307 6.80326e-05 0)
(0.00189533 7.44974e-05 0)
(0.00205998 8.0964e-05 0)
(0.00222465 8.7432e-05 0)
(0.00238932 9.39009e-05 0)
(0.00255401 0.00010037 0)
(0.00271871 0.00010684 0)
(0.00288341 0.000113311 0)
(0.00304812 0.000119782 0)
(0.00321283 0.000126252 0)
(0.00172003 0.000203679 0)
(0.00188365 0.000223033 0)
(0.00204728 0.000242393 0)
(0.00221093 0.000261757 0)
(0.0023746 0.000281124 0)
(0.00253827 0.000300493 0)
(0.00270195 0.000319863 0)
(0.00286564 0.000339235 0)
(0.00302933 0.000358607 0)
(0.00319302 0.000377979 0)
(0.00169876 0.00033807 0)
(0.00186035 0.000370195 0)
(0.00202197 0.000402329 0)
(0.00218359 0.00043447 0)
(0.00234523 0.000466616 0)
(0.00250688 0.000498765 0)
(0.00266854 0.000530916 0)
(0.0028302 0.000563069 0)
(0.00299187 0.000595223 0)
(0.00315354 0.000627378 0)
(0.00166702 0.000470377 0)
(0.00182559 0.000515075 0)
(0.00198418 0.000559787 0)
(0.00214279 0.000604507 0)
(0.00230141 0.000649233 0)
(0.00246004 0.000693964 0)
(0.00261868 0.000738698 0)
(0.00277732 0.000783434 0)
(0.00293596 0.000828172 0)
(0.00309461 0.000872911 0)
(0.00162499 0.000599784 0)
(0.00177957 0.000656782 0)
(0.00193417 0.000713795 0)
(0.00208878 0.000770819 0)
(0.00224341 0.00082785 0)
(0.00239804 0.000884887 0)
(0.00255267 0.000941928 0)
(0.00270732 0.000998972 0)
(0.00286196 0.00105602 0)
(0.00301661 0.00111307 0)
(0.00157295 0.000725495 0)
(0.00172259 0.000794441 0)
(0.00187224 0.000863405 0)
(0.0020219 0.000932381 0)
(0.00217157 0.00100137 0)
(0.00232125 0.00107036 0)
(0.00247094 0.00113935 0)
(0.00262063 0.00120836 0)
(0.00277032 0.00127736 0)
(0.00292002 0.00134636 0)
(0.00151121 0.000846732 0)
(0.00165498 0.000927204 0)
(0.00179876 0.00100769 0)
(0.00194255 0.0010882 0)
(0.00208635 0.00116871 0)
(0.00223015 0.00124923 0)
(0.00237396 0.00132976 0)
(0.00251778 0.00141029 0)
(0.0026616 0.00149083 0)
(0.00280542 0.00157136 0)
(0.00144016 0.000962751 0)
(0.00157717 0.00105425 0)
(0.00171419 0.00114577 0)
(0.00185122 0.00123731 0)
(0.00198826 0.00132886 0)
(0.0021253 0.00142041 0)
(0.00226235 0.00151197 0)
(0.00239941 0.00160354 0)
(0.00253646 0.00169511 0)
(0.00267352 0.00178668 0)
(0.00136022 0.00107283 0)
(0.00148963 0.0011748 0)
(0.00161905 0.00127679 0)
(0.00174848 0.0013788 0)
(0.00187791 0.00148081 0)
(0.00200735 0.00158284 0)
(0.0021368 0.00168487 0)
(0.00226624 0.0017869 0)
(0.00239569 0.00188894 0)
(0.00252515 0.00199099 0)
(0.0012719 0.0011763 0)
(0.00139291 0.00128811 0)
(0.00151393 0.00139994 0)
(0.00163496 0.00151178 0)
(0.00175599 0.00162364 0)
(0.00187702 0.0017355 0)
(0.00199806 0.00184738 0)
(0.0021191 0.00195925 0)
(0.00224015 0.00207114 0)
(0.0023612 0.00218302 0)
(0.00337705 0.000129201 0)
(0.00354231 0.000128561 0)
(0.00370757 0.000127921 0)
(0.00387282 0.000127281 0)
(0.00403808 0.000126641 0)
(0.00420334 0.000126002 0)
(0.00436859 0.000125362 0)
(0.00453385 0.000124722 0)
(0.0046991 0.000124082 0)
(0.00486436 0.000123442 0)
(0.00502962 0.000122802 0)
(0.00519487 0.000122162 0)
(0.00536013 0.000121522 0)
(0.00552539 0.000120882 0)
(0.00569065 0.000120242 0)
(0.0058559 0.000119602 0)
(0.00602116 0.000118962 0)
(0.00618642 0.000118322 0)
(0.00635168 0.000117681 0)
(0.00651694 0.000117041 0)
(0.00335724 0.000386824 0)
(0.00352351 0.000384944 0)
(0.00368979 0.000383064 0)
(0.00385606 0.000381185 0)
(0.00402233 0.000379305 0)
(0.0041886 0.000377425 0)
(0.00435487 0.000375546 0)
(0.00452115 0.000373666 0)
(0.00468742 0.000371786 0)
(0.00485369 0.000369906 0)
(0.00501997 0.000368026 0)
(0.00518624 0.000366146 0)
(0.00535251 0.000364266 0)
(0.00551879 0.000362386 0)
(0.00568506 0.000360506 0)
(0.00585134 0.000358625 0)
(0.00601761 0.000356745 0)
(0.00618389 0.000354864 0)
(0.00635017 0.000352983 0)
(0.00651644 0.000351101 0)
(0.00331774 0.000642115 0)
(0.00348603 0.000639114 0)
(0.00365433 0.000636114 0)
(0.00382263 0.000633114 0)
(0.00399093 0.000630114 0)
(0.00415923 0.000627113 0)
(0.00432753 0.000624113 0)
(0.00449583 0.000621113 0)
(0.00466413 0.000618113 0)
(0.00483242 0.000615113 0)
(0.00500072 0.000612112 0)
(0.00516903 0.000609111 0)
(0.00533733 0.000606111 0)
(0.00550563 0.00060311 0)
(0.00567393 0.000600108 0)
(0.00584223 0.000597107 0)
(0.00601053 0.000594105 0)
(0.00617884 0.000591103 0)
(0.00634714 0.0005881 0)
(0.00651544 0.000585098 0)
(0.00325878 0.000893535 0)
(0.00343011 0.000889612 0)
(0.00360143 0.000885689 0)
(0.00377275 0.000881766 0)
(0.00394407 0.000877843 0)
(0.00411539 0.000873921 0)
(0.00428672 0.000869999 0)
(0.00445804 0.000866076 0)
(0.00462936 0.000862154 0)
(0.00480069 0.000858231 0)
(0.00497201 0.000854308 0)
(0.00514334 0.000850385 0)
(0.00531466 0.000846462 0)
(0.00548599 0.000842538 0)
(0.00565731 0.000838614 0)
(0.00582864 0.00083469 0)
(0.00599997 0.000830765 0)
(0.0061713 0.00082684 0)
(0.00634263 0.000822914 0)
(0.00651396 0.000818988 0)
(0.00318075 0.00113957 0)
(0.00335607 0.001135 0)
(0.0035314 0.00113043 0)
(0.00370672 0.00112586 0)
(0.00388205 0.00112129 0)
(0.00405737 0.00111672 0)
(0.0042327 0.00111215 0)
(0.00440802 0.00110758 0)
(0.00458335 0.00110301 0)
(0.00475868 0.00109844 0)
(0.00493401 0.00109388 0)
(0.00510934 0.00108931 0)
(0.00528467 0.00108474 0)
(0.00545999 0.00108017 0)
(0.00563533 0.00107559 0)
(0.00581066 0.00107102 0)
(0.00598599 0.00106645 0)
(0.00616132 0.00106188 0)
(0.00633665 0.00105731 0)
(0.00651199 0.00105273 0)
(0.00308411 0.00137874 0)
(0.00326439 0.00137387 0)
(0.00344467 0.001369 0)
(0.00362495 0.00136414 0)
(0.00380524 0.00135928 0)
(0.00398552 0.00135441 0)
(0.0041658 0.00134955 0)
(0.00434609 0.00134468 0)
(0.00452637 0.00133982 0)
(0.00470666 0.00133496 0)
(0.00488695 0.00133009 0)
(0.00506723 0.00132523 0)
(0.00524752 0.00132036 0)
(0.00542781 0.0013155 0)
(0.0056081 0.00131063 0)
(0.00578838 0.00130576 0)
(0.00596867 0.0013009 0)
(0.00614896 0.00129603 0)
(0.00632926 0.00129116 0)
(0.00650955 0.00128629 0)
(0.00296947 0.0016096 0)
(0.00315563 0.00160486 0)
(0.00334179 0.00160012 0)
(0.00352796 0.00159539 0)
(0.00371412 0.00159066 0)
(0.00390028 0.00158592 0)
(0.00408645 0.00158119 0)
(0.00427262 0.00157645 0)
(0.00445878 0.00157172 0)
(0.00464495 0.00156699 0)
(0.00483112 0.00156225 0)
(0.00501729 0.00155752 0)
(0.00520345 0.00155279 0)
(0.00538962 0.00154805 0)
(0.00557579 0.00154331 0)
(0.00576196 0.00153858 0)
(0.00594814 0.00153384 0)
(0.00613431 0.0015291 0)
(0.00632048 0.00152436 0)
(0.00650665 0.00151962 0)
(0.00283754 0.00183076 0)
(0.00303047 0.00182665 0)
(0.0032234 0.00182254 0)
(0.00341633 0.00181844 0)
(0.00360926 0.00181433 0)
(0.00380219 0.00181022 0)
(0.00399513 0.00180611 0)
(0.00418806 0.00180201 0)
(0.004381 0.0017979 0)
(0.00457393 0.00179379 0)
(0.00476687 0.00178969 0)
(0.00495981 0.00178558 0)
(0.00515275 0.00178147 0)
(0.00534568 0.00177737 0)
(0.00553862 0.00177326 0)
(0.00573156 0.00176915 0)
(0.0059245 0.00176504 0)
(0.00611744 0.00176093 0)
(0.00631038 0.00175681 0)
(0.00650333 0.0017527 0)
(0.00268912 0.00204091 0)
(0.00288966 0.00203799 0)
(0.00309021 0.00203507 0)
(0.00329076 0.00203215 0)
(0.0034913 0.00202924 0)
(0.00369185 0.00202632 0)
(0.0038924 0.00202341 0)
(0.00409295 0.00202049 0)
(0.0042935 0.00201758 0)
(0.00449405 0.00201466 0)
(0.0046946 0.00201175 0)
(0.00489515 0.00200883 0)
(0.00509571 0.00200592 0)
(0.00529626 0.002003 0)
(0.00549681 0.00200008 0)
(0.00569736 0.00199717 0)
(0.00589792 0.00199425 0)
(0.00609847 0.00199133 0)
(0.00629903 0.0019884 0)
(0.00649958 0.00198548 0)
(0.00252514 0.00223877 0)
(0.0027341 0.00223767 0)
(0.00294306 0.00223657 0)
(0.00315202 0.00223548 0)
(0.00336098 0.00223438 0)
(0.00356994 0.00223329 0)
(0.00377891 0.00223219 0)
(0.00398787 0.0022311 0)
(0.00419683 0.00223 0)
(0.0044058 0.00222891 0)
(0.00461476 0.00222782 0)
(0.00482372 0.00222672 0)
(0.00503269 0.00222563 0)
(0.00524165 0.00222453 0)
(0.00545062 0.00222344 0)
(0.00565958 0.00222234 0)
(0.00586855 0.00222124 0)
(0.00607752 0.00222014 0)
(0.00628648 0.00221904 0)
(0.00649545 0.00221794 0)
(0.00243996 0.00244031 0)
(0.00265327 0.00244029 0)
(0.00286659 0.00244027 0)
(0.0030799 0.00244024 0)
(0.00329322 0.00244022 0)
(0.00350654 0.0024402 0)
(0.00371986 0.00244018 0)
(0.00393318 0.00244017 0)
(0.00414651 0.00244015 0)
(0.00435983 0.00244013 0)
(0.00457315 0.00244011 0)
(0.00478648 0.00244009 0)
(0.00499981 0.00244007 0)
(0.00521314 0.00244005 0)
(0.00542646 0.00244003 0)
(0.0056398 0.00244001 0)
(0.00585313 0.00243999 0)
(0.00606646 0.00243996 0)
(0.00627979 0.00243993 0)
(0.00649313 0.0024399 0)
(0.00243998 0.00265365 0)
(0.00265329 0.00265363 0)
(0.00286661 0.00265361 0)
(0.00307993 0.00265358 0)
(0.00329325 0.00265356 0)
(0.00350657 0.00265354 0)
(0.00371989 0.00265352 0)
(0.00393321 0.0026535 0)
(0.00414653 0.00265348 0)
(0.00435986 0.00265346 0)
(0.00457318 0.00265344 0)
(0.00478651 0.00265342 0)
(0.00499983 0.0026534 0)
(0.00521316 0.00265338 0)
(0.00542649 0.00265335 0)
(0.00563982 0.00265333 0)
(0.00585315 0.0026533 0)
(0.00606648 0.00265328 0)
(0.00627982 0.00265325 0)
(0.00649315 0.00265322 0)
(0.00244 0.002867 0)
(0.00265332 0.00286697 0)
(0.00286663 0.00286695 0)
(0.00307995 0.00286692 0)
(0.00329327 0.0028669 0)
(0.00350659 0.00286688 0)
(0.00371991 0.00286686 0)
(0.00393324 0.00286683 0)
(0.00414656 0.00286681 0)
(0.00435988 0.00286679 0)
(0.00457321 0.00286677 0)
(0.00478653 0.00286675 0)
(0.00499986 0.00286672 0)
(0.00521319 0.0028667 0)
(0.00542652 0.00286667 0)
(0.00563985 0.00286665 0)
(0.00585318 0.00286662 0)
(0.00606651 0.00286659 0)
(0.00627984 0.00286656 0)
(0.00649318 0.00286653 0)
(0.00244002 0.00308034 0)
(0.00265334 0.00308031 0)
(0.00286666 0.00308029 0)
(0.00307998 0.00308026 0)
(0.0032933 0.00308024 0)
(0.00350662 0.00308021 0)
(0.00371994 0.00308019 0)
(0.00393326 0.00308017 0)
(0.00414659 0.00308014 0)
(0.00435991 0.00308012 0)
(0.00457324 0.0030801 0)
(0.00478656 0.00308007 0)
(0.00499989 0.00308005 0)
(0.00521322 0.00308002 0)
(0.00542655 0.00308 0)
(0.00563988 0.00307997 0)
(0.00585321 0.00307994 0)
(0.00606654 0.00307991 0)
(0.00627987 0.00307988 0)
(0.00649321 0.00307985 0)
(0.00244004 0.00329368 0)
(0.00265336 0.00329365 0)
(0.00286668 0.00329362 0)
(0.00308 0.0032936 0)
(0.00329332 0.00329357 0)
(0.00350664 0.00329355 0)
(0.00371997 0.00329352 0)
(0.00393329 0.0032935 0)
(0.00414661 0.00329348 0)
(0.00435994 0.00329345 0)
(0.00457326 0.00329343 0)
(0.00478659 0.0032934 0)
(0.00499992 0.00329337 0)
(0.00521325 0.00329335 0)
(0.00542657 0.00329332 0)
(0.00563991 0.00329329 0)
(0.00585324 0.00329326 0)
(0.00606657 0.00329323 0)
(0.0062799 0.0032932 0)
(0.00649323 0.00329316 0)
(0.00244006 0.00350701 0)
(0.00265338 0.00350699 0)
(0.0028667 0.00350696 0)
(0.00308002 0.00350694 0)
(0.00329335 0.00350691 0)
(0.00350667 0.00350688 0)
(0.00371999 0.00350686 0)
(0.00393332 0.00350683 0)
(0.00414664 0.00350681 0)
(0.00435997 0.00350678 0)
(0.00457329 0.00350675 0)
(0.00478662 0.00350673 0)
(0.00499995 0.0035067 0)
(0.00521327 0.00350667 0)
(0.0054266 0.00350664 0)
(0.00563993 0.00350661 0)
(0.00585327 0.00350658 0)
(0.0060666 0.00350655 0)
(0.00627993 0.00350651 0)
(0.00649326 0.00350648 0)
(0.00244008 0.00372035 0)
(0.0026534 0.00372032 0)
(0.00286672 0.0037203 0)
(0.00308005 0.00372027 0)
(0.00329337 0.00372024 0)
(0.00350669 0.00372022 0)
(0.00372002 0.00372019 0)
(0.00393334 0.00372017 0)
(0.00414667 0.00372014 0)
(0.00435999 0.00372011 0)
(0.00457332 0.00372008 0)
(0.00478665 0.00372006 0)
(0.00499998 0.00372003 0)
(0.0052133 0.00372 0)
(0.00542663 0.00371997 0)
(0.00563996 0.00371993 0)
(0.0058533 0.0037199 0)
(0.00606663 0.00371987 0)
(0.00627996 0.00371983 0)
(0.00649329 0.00371979 0)
(0.0024401 0.00393369 0)
(0.00265342 0.00393366 0)
(0.00286675 0.00393363 0)
(0.00308007 0.00393361 0)
(0.00329339 0.00393358 0)
(0.00350672 0.00393355 0)
(0.00372004 0.00393352 0)
(0.00393337 0.0039335 0)
(0.0041467 0.00393347 0)
(0.00436002 0.00393344 0)
(0.00457335 0.00393341 0)
(0.00478668 0.00393338 0)
(0.00500001 0.00393335 0)
(0.00521334 0.00393332 0)
(0.00542667 0.00393329 0)
(0.00564 0.00393326 0)
(0.00585333 0.00393322 0)
(0.00606666 0.00393319 0)
(0.00627999 0.00393315 0)
(0.00649332 0.00393311 0)
(0.00244012 0.00414702 0)
(0.00265344 0.00414699 0)
(0.00286677 0.00414697 0)
(0.00308009 0.00414694 0)
(0.00329342 0.00414691 0)
(0.00350674 0.00414688 0)
(0.00372007 0.00414686 0)
(0.0039334 0.00414683 0)
(0.00414672 0.0041468 0)
(0.00436005 0.00414677 0)
(0.00457338 0.00414674 0)
(0.00478671 0.00414671 0)
(0.00500004 0.00414668 0)
(0.00521337 0.00414665 0)
(0.0054267 0.00414661 0)
(0.00564003 0.00414658 0)
(0.00585336 0.00414654 0)
(0.00606669 0.00414651 0)
(0.00628002 0.00414647 0)
(0.00649336 0.00414643 0)
(0.00244014 0.00436035 0)
(0.00265346 0.00436033 0)
(0.00286679 0.0043603 0)
(0.00308012 0.00436027 0)
(0.00329344 0.00436024 0)
(0.00350677 0.00436022 0)
(0.0037201 0.00436019 0)
(0.00393343 0.00436016 0)
(0.00414675 0.00436013 0)
(0.00436008 0.0043601 0)
(0.00457341 0.00436007 0)
(0.00478674 0.00436004 0)
(0.00500007 0.00436 0)
(0.0052134 0.00435997 0)
(0.00542673 0.00435994 0)
(0.00564006 0.0043599 0)
(0.00585339 0.00435986 0)
(0.00606672 0.00435983 0)
(0.00628006 0.00435979 0)
(0.00649339 0.00435975 0)
(0.00244015 0.00457368 0)
(0.00265348 0.00457366 0)
(0.00286681 0.00457363 0)
(0.00308014 0.0045736 0)
(0.00329347 0.00457358 0)
(0.0035068 0.00457355 0)
(0.00372013 0.00457352 0)
(0.00393345 0.00457349 0)
(0.00414678 0.00457346 0)
(0.00436011 0.00457343 0)
(0.00457344 0.0045734 0)
(0.00478677 0.00457336 0)
(0.0050001 0.00457333 0)
(0.00521343 0.0045733 0)
(0.00542676 0.00457326 0)
(0.00564009 0.00457322 0)
(0.00585343 0.00457319 0)
(0.00606676 0.00457315 0)
(0.00628009 0.00457311 0)
(0.00649342 0.00457306 0)
(0.00244017 0.00478701 0)
(0.0026535 0.00478699 0)
(0.00286683 0.00478696 0)
(0.00308016 0.00478693 0)
(0.00329349 0.00478691 0)
(0.00350682 0.00478688 0)
(0.00372015 0.00478685 0)
(0.00393348 0.00478682 0)
(0.00414681 0.00478679 0)
(0.00436014 0.00478675 0)
(0.00457347 0.00478672 0)
(0.0047868 0.00478669 0)
(0.00500014 0.00478666 0)
(0.00521347 0.00478662 0)
(0.0054268 0.00478658 0)
(0.00564013 0.00478655 0)
(0.00585346 0.00478651 0)
(0.00606679 0.00478647 0)
(0.00628012 0.00478643 0)
(0.00649346 0.00478638 0)
(0.00244019 0.00500034 0)
(0.00265353 0.00500032 0)
(0.00286686 0.00500029 0)
(0.00308019 0.00500026 0)
(0.00329352 0.00500023 0)
(0.00350685 0.00500021 0)
(0.00372018 0.00500018 0)
(0.00393351 0.00500015 0)
(0.00414684 0.00500011 0)
(0.00436018 0.00500008 0)
(0.00457351 0.00500005 0)
(0.00478684 0.00500002 0)
(0.00500017 0.00499998 0)
(0.0052135 0.00499995 0)
(0.00542683 0.00499991 0)
(0.00564017 0.00499987 0)
(0.0058535 0.00499983 0)
(0.00606683 0.00499979 0)
(0.00628016 0.00499975 0)
(0.00649349 0.0049997 0)
(0.00244021 0.00521367 0)
(0.00265355 0.00521365 0)
(0.00286688 0.00521362 0)
(0.00308021 0.00521359 0)
(0.00329355 0.00521356 0)
(0.00350688 0.00521353 0)
(0.00372021 0.0052135 0)
(0.00393354 0.00521347 0)
(0.00414688 0.00521344 0)
(0.00436021 0.00521341 0)
(0.00457354 0.00521338 0)
(0.00478687 0.00521334 0)
(0.00500021 0.00521331 0)
(0.00521354 0.00521327 0)
(0.00542687 0.00521323 0)
(0.0056402 0.00521319 0)
(0.00585354 0.00521315 0)
(0.00606687 0.00521311 0)
(0.0062802 0.00521307 0)
(0.00649353 0.00521302 0)
(0.00244023 0.005427 0)
(0.00265357 0.00542697 0)
(0.00286691 0.00542695 0)
(0.00308024 0.00542692 0)
(0.00329357 0.00542689 0)
(0.00350691 0.00542686 0)
(0.00372024 0.00542683 0)
(0.00393358 0.0054268 0)
(0.00414691 0.00542677 0)
(0.00436024 0.00542674 0)
(0.00457358 0.0054267 0)
(0.00478691 0.00542667 0)
(0.00500024 0.00542663 0)
(0.00521358 0.00542659 0)
(0.00542691 0.00542656 0)
(0.00564024 0.00542652 0)
(0.00585358 0.00542648 0)
(0.00606691 0.00542643 0)
(0.00628024 0.00542639 0)
(0.00649357 0.00542634 0)
(0.00244026 0.00564033 0)
(0.00265359 0.0056403 0)
(0.00286693 0.00564027 0)
(0.00308027 0.00564025 0)
(0.0032936 0.00564022 0)
(0.00350694 0.00564019 0)
(0.00372027 0.00564016 0)
(0.00393361 0.00564013 0)
(0.00414694 0.00564009 0)
(0.00436028 0.00564006 0)
(0.00457361 0.00564003 0)
(0.00478695 0.00563999 0)
(0.00500028 0.00563996 0)
(0.00521361 0.00563992 0)
(0.00542695 0.00563988 0)
(0.00564028 0.00563984 0)
(0.00585362 0.0056398 0)
(0.00606695 0.00563975 0)
(0.00628029 0.00563971 0)
(0.00649362 0.00563966 0)
(0.00244028 0.00585365 0)
(0.00265362 0.00585363 0)
(0.00286696 0.0058536 0)
(0.0030803 0.00585357 0)
(0.00329363 0.00585354 0)
(0.00350697 0.00585351 0)
(0.00372031 0.00585348 0)
(0.00393364 0.00585345 0)
(0.00414698 0.00585342 0)
(0.00436031 0.00585339 0)
(0.00457365 0.00585335 0)
(0.00478698 0.00585332 0)
(0.00500032 0.00585328 0)
(0.00521365 0.00585324 0)
(0.00542699 0.0058532 0)
(0.00564032 0.00585316 0)
(0.00585366 0.00585312 0)
(0.006067 0.00585308 0)
(0.00628033 0.00585303 0)
(0.00649367 0.00585298 0)
(0.00244031 0.00606698 0)
(0.00265365 0.00606695 0)
(0.00286699 0.00606692 0)
(0.00308033 0.0060669 0)
(0.00329366 0.00606687 0)
(0.003507 0.00606684 0)
(0.00372034 0.00606681 0)
(0.00393368 0.00606678 0)
(0.00414702 0.00606674 0)
(0.00436035 0.00606671 0)
(0.00457369 0.00606668 0)
(0.00478703 0.00606664 0)
(0.00500036 0.00606661 0)
(0.0052137 0.00606657 0)
(0.00542703 0.00606653 0)
(0.00564037 0.00606648 0)
(0.0058537 0.00606644 0)
(0.00606704 0.0060664 0)
(0.00628038 0.00606635 0)
(0.00649371 0.00606631 0)
(0.00244033 0.0062803 0)
(0.00265367 0.00628027 0)
(0.00286702 0.00628025 0)
(0.00308036 0.00628022 0)
(0.0032937 0.00628019 0)
(0.00350704 0.00628016 0)
(0.00372038 0.00628013 0)
(0.00393372 0.0062801 0)
(0.00414705 0.00628007 0)
(0.00436039 0.00628004 0)
(0.00457373 0.00628 0)
(0.00478707 0.00627997 0)
(0.0050004 0.00627993 0)
(0.00521374 0.00627989 0)
(0.00542708 0.00627985 0)
(0.00564041 0.00627981 0)
(0.00585374 0.00627976 0)
(0.00606708 0.00627971 0)
(0.00628042 0.00627967 0)
(0.00649375 0.00627965 0)
(0.00244036 0.00649362 0)
(0.0026537 0.0064936 0)
(0.00286705 0.00649357 0)
(0.00308039 0.00649354 0)
(0.00329373 0.00649351 0)
(0.00350707 0.00649349 0)
(0.00372041 0.00649346 0)
(0.00393375 0.00649342 0)
(0.00414709 0.00649339 0)
(0.00436043 0.00649336 0)
(0.00457377 0.00649333 0)
(0.00478711 0.00649329 0)
(0.00500045 0.00649325 0)
(0.00521378 0.00649322 0)
(0.00542712 0.00649317 0)
(0.00564046 0.00649313 0)
(0.00585379 0.00649308 0)
(0.00606712 0.00649303 0)
(0.00628044 0.00649299 0)
(0.00649376 0.00649298 0)
(0.000129197 0.00337795 0)
(0.00038681 0.00335812 0)
(0.000642089 0.00331859 0)
(0.000893491 0.0032596 0)
(0.0011395 0.00318151 0)
(0.00137864 0.00308481 0)
(0.00160946 0.0029701 0)
(0.00183057 0.00283809 0)
(0.00204066 0.0026896 0)
(0.00223846 0.00252555 0)
(0.000128558 0.0035432 0)
(0.000384935 0.00352439 0)
(0.000639095 0.00348689 0)
(0.000889579 0.00343092 0)
(0.00113495 0.00335684 0)
(0.00137379 0.0032651 0)
(0.00160475 0.00315628 0)
(0.00182649 0.00303105 0)
(0.00203778 0.00289017 0)
(0.0022374 0.00273454 0)
(0.00012792 0.00370845 0)
(0.000383059 0.00369066 0)
(0.000636102 0.00365519 0)
(0.000885666 0.00360225 0)
(0.00113039 0.00353217 0)
(0.00136894 0.0034454 0)
(0.00160003 0.00334246 0)
(0.00182241 0.003224 0)
(0.0020349 0.00309074 0)
(0.00223635 0.00294353 0)
(0.000127281 0.00387371 0)
(0.000381183 0.00385693 0)
(0.000633108 0.00382348 0)
(0.000881753 0.00377357 0)
(0.00112583 0.0037075 0)
(0.0013641 0.00362569 0)
(0.00159532 0.00352863 0)
(0.00181833 0.00341694 0)
(0.00203201 0.00329131 0)
(0.00223529 0.00315251 0)
(0.000126642 0.00403896 0)
(0.000379307 0.0040232 0)
(0.000630114 0.00399178 0)
(0.00087784 0.00394489 0)
(0.00112128 0.00388283 0)
(0.00135925 0.00380598 0)
(0.00159061 0.00371481 0)
(0.00181425 0.00360989 0)
(0.00202913 0.00349188 0)
(0.00223423 0.00336149 0)
(0.000126004 0.00420421 0)
(0.000377431 0.00418947 0)
(0.00062712 0.00416008 0)
(0.000873926 0.00411622 0)
(0.00111672 0.00405816 0)
(0.0013544 0.00398627 0)
(0.00158589 0.00390098 0)
(0.00181017 0.00380284 0)
(0.00202624 0.00369244 0)
(0.00223317 0.00357047 0)
(0.000125365 0.00436947 0)
(0.000375555 0.00435574 0)
(0.000624126 0.00432838 0)
(0.000870013 0.00428754 0)
(0.00111216 0.00423349 0)
(0.00134955 0.00416656 0)
(0.00158118 0.00408716 0)
(0.00180609 0.00399578 0)
(0.00202336 0.003893 0)
(0.00223211 0.00377945 0)
(0.000124726 0.00453472 0)
(0.000373679 0.00452201 0)
(0.000621132 0.00449668 0)
(0.0008661 0.00445887 0)
(0.00110761 0.00440882 0)
(0.0013447 0.00434684 0)
(0.00157647 0.00427333 0)
(0.00180201 0.00418873 0)
(0.00202047 0.00409356 0)
(0.00223105 0.00398843 0)
(0.000124088 0.00469997 0)
(0.000371803 0.00468828 0)
(0.000618139 0.00466497 0)
(0.000862186 0.00463019 0)
(0.00110305 0.00458415 0)
(0.00133986 0.00452713 0)
(0.00157175 0.0044595 0)
(0.00179792 0.00438167 0)
(0.00201758 0.00429412 0)
(0.00222999 0.0041974 0)
(0.000123449 0.00486523 0)
(0.000369927 0.00485455 0)
(0.000615145 0.00483327 0)
(0.000858273 0.00480151 0)
(0.00109849 0.00475947 0)
(0.00133501 0.00470742 0)
(0.00156704 0.00464567 0)
(0.00179384 0.00457461 0)
(0.0020147 0.00449468 0)
(0.00222893 0.00440637 0)
(0.000122811 0.00503048 0)
(0.000368051 0.00502082 0)
(0.000612151 0.00500157 0)
(0.00085436 0.00497283 0)
(0.00109394 0.0049348 0)
(0.00133016 0.0048877 0)
(0.00156233 0.00483184 0)
(0.00178976 0.00476755 0)
(0.00201181 0.00469523 0)
(0.00222787 0.00461534 0)
(0.000122172 0.00519573 0)
(0.000366175 0.00518709 0)
(0.000609158 0.00516986 0)
(0.000850447 0.00514416 0)
(0.00108938 0.00511013 0)
(0.00132531 0.00506799 0)
(0.00155761 0.00501801 0)
(0.00178568 0.00496049 0)
(0.00200892 0.00489579 0)
(0.00222681 0.00482431 0)
(0.000121533 0.00536098 0)
(0.0003643 0.00535336 0)
(0.000606165 0.00533816 0)
(0.000846535 0.00531548 0)
(0.00108483 0.00528545 0)
(0.00132046 0.00524828 0)
(0.0015529 0.00520417 0)
(0.00178159 0.00515342 0)
(0.00200604 0.00509634 0)
(0.00222575 0.00503328 0)
(0.000120895 0.00552624 0)
(0.000362424 0.00551963 0)
(0.000603172 0.00550646 0)
(0.000842623 0.0054868 0)
(0.00108027 0.00546078 0)
(0.00131562 0.00542856 0)
(0.00154819 0.00539034 0)
(0.00177751 0.00534636 0)
(0.00200315 0.00529689 0)
(0.00222469 0.00524224 0)
(0.000120257 0.00569149 0)
(0.000360549 0.0056859 0)
(0.000600179 0.00567475 0)
(0.000838711 0.00565812 0)
(0.00107571 0.00563611 0)
(0.00131077 0.00560884 0)
(0.00154347 0.00557651 0)
(0.00177343 0.0055393 0)
(0.00200027 0.00549744 0)
(0.00222363 0.0054512 0)
(0.000119618 0.00585674 0)
(0.000358673 0.00585217 0)
(0.000597186 0.00584305 0)
(0.000834799 0.00582944 0)
(0.00107116 0.00581143 0)
(0.00130593 0.00578913 0)
(0.00153876 0.00576267 0)
(0.00176935 0.00573223 0)
(0.00199739 0.00569799 0)
(0.00222258 0.00566016 0)
(0.00011898 0.00602199 0)
(0.000356798 0.00601843 0)
(0.000594194 0.00601134 0)
(0.000830888 0.00600076 0)
(0.00106661 0.00598675 0)
(0.00130108 0.00596941 0)
(0.00153405 0.00594884 0)
(0.00176527 0.00592517 0)
(0.00199451 0.00589854 0)
(0.00222152 0.00586912 0)
(0.000118342 0.00618724 0)
(0.000354924 0.0061847 0)
(0.000591202 0.00617964 0)
(0.000826977 0.00617208 0)
(0.00106205 0.00616208 0)
(0.00129624 0.00614969 0)
(0.00152934 0.006135 0)
(0.0017612 0.0061181 0)
(0.00199162 0.00609909 0)
(0.00222047 0.00607808 0)
(0.000117703 0.00635249 0)
(0.000353049 0.00635097 0)
(0.000588211 0.00634793 0)
(0.000823067 0.0063434 0)
(0.0010575 0.0063374 0)
(0.00129139 0.00632997 0)
(0.00152464 0.00632117 0)
(0.00175712 0.00631103 0)
(0.00198874 0.00629963 0)
(0.00221941 0.00628704 0)
(0.000117065 0.00651774 0)
(0.000351174 0.00651723 0)
(0.000585219 0.00651622 0)
(0.000819158 0.00651472 0)
(0.00105295 0.00651272 0)
(0.00128655 0.00651025 0)
(0.00151993 0.00650733 0)
(0.00175304 0.00650396 0)
(0.00198587 0.00650017 0)
(0.00221836 0.00649599 0)
)
;

boundaryField
{
    left
    {
        type            symmetryPlane;
    }
    right
    {
        type            tractionDisplacement;
        traction        uniform (10000 0 0);
        pressure        
        {
            type            uniform;
            value           0;
        }
        value           nonuniform List<vector> 
30
(
(0.00659965 0.000117041 2.44388e-21)
(0.00659965 0.0003511 -1.62389e-21)
(0.00659966 0.000585095 -9.123e-25)
(0.00659967 0.000818984 2.44455e-21)
(0.00659968 0.00105273 -2.43093e-21)
(0.00659969 0.00128628 -9.9571e-24)
(0.00659971 0.00151962 -7.44364e-24)
(0.00659972 0.00175269 -2.58248e-23)
(0.00659975 0.00198547 1.62294e-21)
(0.00659977 0.00221793 2.65659e-23)
(0.00659979 0.00243989 -7.23743e-24)
(0.00659982 0.0026532 5.08504e-36)
(0.00659984 0.00286651 -1.13768e-25)
(0.00659987 0.00307983 -1.17207e-25)
(0.0065999 0.00329314 2.40031e-25)
(0.00659993 0.00350646 2.54315e-36)
(0.00659996 0.00371978 5.08375e-36)
(0.00659999 0.00393309 1.28746e-25)
(0.00660002 0.00414641 -1.32471e-25)
(0.00660005 0.00435973 2.54233e-36)
(0.00660009 0.00457304 -9.77832e-40)
(0.00660012 0.00478636 -1.02137e-39)
(0.00660016 0.00499968 0)
(0.0066002 0.00521299 2.54229e-36)
(0.00660024 0.00542631 5.08704e-36)
(0.00660028 0.00563963 2.54356e-36)
(0.00660033 0.00585296 1.33371e-39)
(0.00660038 0.00606629 -3.873e-41)
(0.00660042 0.00627963 8.90546e-26)
(0.00660043 0.006493 0)
)
;
    }
    down
    {
        type            symmetryPlane;
    }
    up
    {
        type            tractionDisplacement;
        traction        uniform (0 0 0);
        pressure        
        {
            type            uniform;
            value           0;
        }
        value           nonuniform List<vector> 
30
(
(0.000117066 0.00660044 2.44455e-21)
(0.000351176 0.00660043 -2.43998e-21)
(0.000585222 0.00660043 2.43703e-21)
(0.000819162 0.00660042 8.15742e-22)
(0.00105295 0.00660041 -8.06981e-22)
(0.00128656 0.00660039 -8.15649e-22)
(0.00151994 0.00660037 1.1476e-24)
(0.00175305 0.00660035 -8.07707e-22)
(0.00198588 0.00660033 1.22576e-23)
(0.00221837 0.00660031 -1.58997e-21)
(0.00244037 0.00660028 -7.47425e-22)
(0.00265372 0.00660026 -1.00255e-25)
(0.00286706 0.00660023 -1.04521e-25)
(0.0030804 0.0066002 0)
(0.00329375 0.00660018 1.1255e-25)
(0.00350709 0.00660015 1.16233e-25)
(0.00372043 0.00660012 -1.19794e-25)
(0.00393377 0.00660009 -1.23385e-25)
(0.00414711 0.00660005 1.27202e-25)
(0.00436045 0.00660002 2.54038e-36)
(0.00457379 0.00659999 9.39004e-40)
(0.00478713 0.00659995 2.54215e-36)
(0.00500047 0.00659992 5.08437e-36)
(0.00521381 0.00659988 5.08547e-36)
(0.00542715 0.00659984 5.08439e-36)
(0.00564048 0.00659979 5.08564e-36)
(0.00585382 0.00659975 -1.86361e-25)
(0.00606714 0.0065997 0)
(0.00628046 0.00659966 0)
(0.00649375 0.00659965 0)
)
;
    }
    hole
    {
        type            tractionDisplacement;
        traction        uniform (0 0 0);
        pressure        
        {
            type            uniform;
            value           0;
        }
        value           nonuniform List<vector> 
20
(
(0.00111887 0.00121105 8.79317e-22)
(0.00102045 0.00129515 5.58115e-23)
(0.000915747 0.00137126 0)
(0.000805396 0.00143893 -2.61015e-22)
(0.000690079 0.00149772 -4.67163e-22)