/*--------------------------------*- C++ -*----------------------------------*\
  =========                 |
  \\      /  F ield         | OpenFOAM: The Open Source CFD Toolbox
   \\    /   O peration     | Website:  https://openfoam.org
    \\  /    A nd           | Version:  dev
     \\/     M anipulation  |
\*---------------------------------------------------------------------------*/
FoamFile
{
    version     2.0;
    format      ascii;
    class       volScalarField;
    location    "60";
    object      sigmayz;
}
// * * * * * * * * * * * * * * * * * * * * * * * * * * * * * * * * * * * * * //

dimensions      [1 -1 -2 0 0 0 0];

internalField   nonuniform List<scalar> 
1000
(
6.88715e-10
4.67741e-09
-6.41703e-09
-2.79039e-09
1.0967e-08
3.25098e-09
5.55943e-09
-6.19292e-09
-3.82442e-09
0
2.68985e-09
0
-2.33233e-09
4.31942e-09
1.82001e-09
1.56174e-09
-1.74424e-09
-7.74042e-09
0
0
0
0
-1.87657e-09
3.18506e-09
4.88789e-11
-1.9785e-09
-5.47492e-09
1.32648e-09
4.18239e-09
2.63704e-09
1.41152e-09
-2.85936e-09
7.30018e-10
3.18156e-09
1.96586e-09
1.35277e-09
1.39631e-09
3.1029e-09
-3.8378e-09
1.61994e-09
4.4086e-10
8.35798e-11
2.36213e-09
-1.6558e-09
3.73019e-09
2.70552e-09
2.31041e-09
-3.21634e-09
-1.11205e-08
6.81632e-10
1.35054e-09
8.63476e-11
-8.63817e-11
-1.7106e-09
9.56972e-10
-2.13316e-10
-1.04142e-09
5.0429e-11
-4.61546e-10
-1.60823e-09
-1.96287e-09
-2.88868e-09
-5.07884e-10
1.93215e-09
3.28696e-09
-3.32452e-09
-8.79472e-09
5.82654e-10
4.74968e-09
3.00334e-09
-1.33632e-09
6.10718e-10
-1.38236e-10
-3.75727e-09
2.76366e-09
3.93859e-09
1.80778e-10
3.0372e-09
-2.37336e-09
-2.66113e-09
6.06342e-10
2.05521e-09
-3.29817e-09
-5.61505e-09
4.26211e-09
3.76058e-09
-4.44574e-09
-6.02745e-10
-1.89843e-10
8.10054e-09
1.88506e-09
2.90719e-09
-3.50834e-09
-3.82796e-09
1.84111e-10
3.9696e-09
-4.65751e-09
-1.7068e-11
5.02638e-09
2.76552e-09
4.36399e-09
1.1778e-10
1.72361e-09
0
-1.6124e-10
2.89426e-09
1.75742e-10
2.65415e-09
-1.11079e-09
-3.44256e-09
4.31e-09
-1.74555e-09
1.58093e-09
-2.14267e-10
0
2.88705e-09
5.47805e-10
2.0041e-12
-1.21526e-09
-1.49516e-09
2.08855e-09
-1.60771e-09
-1.76366e-09
-3.55645e-10
0
2.81599e-09
3.96811e-09
-2.05196e-09
6.00073e-13
1.75619e-09
-4.22143e-09
-4.1966e-10
-1.74571e-09
0
4.05898e-09
1.79664e-09
-1.20316e-09
-1.9353e-09
-1.17977e-09
-2.18953e-09
4.13376e-09
2.87308e-09
1.6587e-09
1.32569e-09
2.03448e-11
-4.20791e-09
-1.36767e-09
0
-6.83786e-10
-1.02251e-09
5.46194e-09
-1.2305e-09
9.14895e-10
-7.63227e-10
-2.86012e-09
4.41589e-09
1.22578e-11
1.32931e-09
1.2882e-12
2.57288e-09
-5.3621e-10
-2.98676e-11
-4.49794e-11
1.9443e-09
2.00684e-09
2.4905e-09
-4.65401e-09
8.33394e-12
-2.26496e-09
1.70101e-09
-5.7976e-09
-1.63301e-09
9.87094e-10
-9.70173e-10
1.02354e-10
-4.88117e-09
-2.50328e-09
2.52889e-09
1.44848e-09
5.428e-10
-4.5045e-09
1.35012e-09
-5.69926e-11
-3.81879e-09
-2.35425e-09
-2.3432e-09
3.01773e-09
2.9368e-09
-4.95949e-09
-9.31351e-10
8.01285e-11
1.11213e-09
1.20718e-09
-8.54042e-09
-3.99017e-11
1.92304e-09
6.64987e-09
6.62601e-10
-5.12582e-09
4.47878e-09
-1.14904e-09
-2.26728e-09
-1.10781e-09
1.05242e-11
3.45422e-09
0
0
-1.02753e-11
-1.17561e-09
-2.03037e-11
-3.56357e-09
1.19409e-09
-3.60065e-09
2.9985e-11
1.20273e-09
-3.54164e-14
9.83851e-12
-9.75095e-12
-3.6941e-09
2.53009e-09
-8.53531e-10
-2.25722e-09
-1.10411e-09
-2.39557e-09
1.12357e-09
1.25663e-09
-2.34581e-09
0
-1.17305e-09
-2.38626e-09
-5.98707e-09
-1.36967e-11
-2.35604e-09
-2.88571e-11
-4.15208e-11
2.85632e-11
2.85188e-11
5.65489e-11
2.90119e-11
3.65479e-09
-4.80925e-11
-1.14389e-09
1.42813e-10
1.1513e-09
-2.44366e-09
1.29887e-09
8.93088e-11
-9.28363e-11
-2.31527e-09
1.37006e-10
-4.55849e-11
-1.13512e-10
-2.25428e-11
4.49839e-11
-2.34186e-11
-1.54307e-13
4.43335e-11
1.21976e-09
6.25225e-09
-1.4029e-11
0
-1.12824e-09
-5.9822e-11
-1.34871e-10
0
-1.13708e-09
2.41319e-09
1.16097e-10
1.28942e-09
2.29425e-09
2.37002e-09
-2.53956e-09
-3.69716e-09
1.21284e-09
1.18998e-09
5.58088e-11
1.74898e-13
1.10143e-09
-1.28597e-09
2.89554e-09
2.01229e-09
1.15496e-09
1.30351e-09
-1.15745e-09
-3.73627e-09
1.00823e-10
0
-6.41633e-11
3.64809e-09
1.33141e-09
-2.43118e-09
-1.04043e-09
3.78759e-09
1.07949e-09
-1.31374e-09
-1.25817e-09
-2.65001e-09
-1.32924e-09
-2.70111e-09
9.49791e-10
4.98252e-10
-3.05004e-11
1.21242e-09
2.52466e-09
-1.16474e-09
-1.73813e-10
6.49829e-11
1.20984e-09
-3.93439e-09
1.40872e-10
1.63619e-10
2.24863e-09
6.4014e-09
1.87179e-10
-1.25085e-09
2.90085e-09
8.39171e-11
-1.52065e-09
1.2791e-09
-2.69016e-09
-5.79182e-10
-2.72709e-11
-1.18756e-09
6.04713e-11
2.38629e-09
-1.21429e-09
-2.63136e-09
3.98694e-09
2.88666e-09
-4.10234e-09
2.61357e-09
-1.70129e-10
-2.84592e-09
-1.23607e-09
4.13092e-09
-1.58993e-10
2.91972e-09
-5.60475e-11
-1.48215e-09
-1.42331e-09
-3.09512e-11
1.31688e-11
-1.10105e-09
0
0
1.38243e-09
-2.23106e-11
-1.70385e-09
-9.26261e-11
1.66917e-09
-9.1618e-11
1.39247e-09
-4.22614e-09
-4.42476e-09
-1.93789e-10
-7.10083e-09
0
2.97504e-09
-1.43806e-09
-4.39547e-09
3.11294e-11
-1.11192e-09
1.19097e-09
1.23258e-09
-2.57764e-09
-2.68572e-09
2.60327e-09
-2.50662e-09
3.33113e-10
2.61515e-09
4.43384e-09
-7.8203e-11
-1.3556e-09
1.52817e-10
-2.87614e-09
1.39832e-10
1.44043e-09
1.43814e-09
1.66839e-09
1.75774e-09
3.94843e-10
1.51553e-09
-4.1012e-10
-3.4641e-10
7.47913e-10
9.89027e-10
1.59759e-09
-3.25935e-10
1.96425e-09
2.57101e-10
-7.19794e-10
2.55075e-10
0
4.77907e-09
-1.94201e-10
4.85967e-09
-1.97775e-10
-3.32182e-09
-1.92887e-10
2.91844e-09
8.6622e-11
1.68483e-09
6.80695e-11
-1.70108e-09
5.1756e-09
3.37361e-09
1.71508e-09
-1.71648e-09
-5.15072e-09
-4.58359e-11
-3.3772e-09
-5.27213e-11
0
1.69602e-09
-1.6876e-09
-8.35021e-11
-1.6666e-09
1.06799e-10
1.20247e-10
1.34755e-10
-6.72583e-10
0
1.88931e-13
-6.05362e-24
-1.21248e-23
-2.3469e-23
-1.21032e-23
1.67695e-13
0
-1.67218e-13
-6.84276e-24
1.72638e-13
-1.77626e-13
-1.21014e-23
1.92661e-13
1.96941e-25
-2.13781e-13
-2.28407e-13
-6.45128e-24
-6.45115e-24
1.76132e-09
1.76152e-09
1.76171e-09
0
1.76131e-09
3.52279e-09
1.76166e-09
3.52311e-09
-1.79875e-13
3.52288e-09
1.76143e-09
3.52282e-09
3.5228e-09
1.76138e-09
3.52274e-09
3.52271e-09
2.27831e-13
1.76133e-09
1.76132e-09
1.7613e-09
-2.39831e-09
-1.76151e-09
1.76191e-09
-1.81582e-23
1.7611e-09
0
-1.76147e-09
3.83906e-13
-2.42092e-23
-3.86973e-13
1.76142e-09
-5.85294e-25
8.46836e-27
-1.76139e-09
4.55554e-27
4.61496e-13
-1.21031e-23
1.76082e-09
1.76132e-09
1.76131e-09
-3.52301e-09
-1.76171e-09
-3.52299e-09
6.04908e-24
-3.52317e-09
-1.76127e-09
-1.76126e-09
-3.52291e-09
-2.03486e-13
-1.76164e-09
-3.52285e-09
-1.7612e-09
-3.52258e-09
-1.76139e-09
-3.52298e-09
-1.76136e-09
-5.63835e-29
-3.52294e-09
-3.52265e-09
-3.52263e-09
2.28625e-09
1.76149e-09
2.12988e-13
0
-2.11707e-13
-1.76168e-09
1.76167e-09
2.12405e-13
-2.13903e-13
-1.76143e-09
-2.38587e-23
-1.76141e-09
0
1.76139e-09
0
-1.76136e-09
2.65996e-13
-1.21249e-23
-1.21239e-23
-1.21228e-23
-4.87293e-10
-1.76148e-09
2.16858e-13
-1.8155e-23
-1.7794e-23
-1.76146e-09
-1.76146e-09
2.21239e-13
0
-1.76166e-09
1.21301e-23
-1.76118e-09
-2.41742e-13
-1.76139e-09
2.58615e-13
-1.76137e-09
-2.77628e-13
-2.88391e-13
1.21239e-23
1.21259e-23
-1.76147e-09
-1.76147e-09
-1.76147e-09
0
-1.76146e-09
0
-1.76145e-09
0
0
0
-1.76142e-09
0
0
-1.76139e-09
0
0
0
-1.76135e-09
-1.76134e-09
-1.76133e-09
2.17307e-09
0
1.76146e-09
0
1.76146e-09
1.76145e-09
0
0
0
1.76142e-09
1.76142e-09
1.76141e-09
0
0
0
1.76137e-09
0
1.76135e-09
1.76134e-09
1.76133e-09
7.47801e-10
1.76145e-09
5.67053e-24
1.20991e-23
-2.31708e-13
1.76168e-09
1.76168e-09
0
-2.46251e-13
1.76117e-09
-1.21236e-23
1.76167e-09
2.7001e-13
1.76139e-09
-2.88878e-13
1.76137e-09
-1.21001e-23
-3.20307e-13
-1.23195e-23
-3.8996e-25
-2.13302e-13
-2.42479e-23
2.24917e-13
0
-2.34727e-13
-2.39005e-13
2.43151e-13
2.47424e-13
-2.52043e-13
2.42043e-23
2.38579e-23
1.20985e-23
-1.21003e-23
-2.46457e-23
-1.20981e-23
6.04794e-24
3.18713e-13
1.21241e-23
1.21264e-23
1.21239e-23
5.97552e-10
1.81877e-23
1.21247e-23
-1.64584e-27
-2.37053e-13
2.42039e-13
2.46847e-13
0
-2.56953e-13
-2.62662e-13
1.19289e-23
2.76178e-13
2.8428e-13
-2.01685e-27
-3.04259e-13
7.00947e-29
-7.26227e-29
-3.40707e-13
1.21265e-23
1.21239e-23
2.61332e-10
1.76143e-09
2.2599e-13
0
-2.38731e-13
-1.76167e-09
1.76167e-09
3.52309e-09
-2.60997e-13
-1.76141e-09
-2.42488e-23
-1.7614e-09
3.52279e-09
1.76139e-09
3.52277e-09
-1.76138e-09
3.34156e-13
0
2.54029e-27
0
-2.24822e-10
-1.76142e-09
2.26021e-13
1.20988e-23
5.86555e-24
-1.76142e-09
-1.76192e-09
2.57819e-13
5.28351e-13
-1.76168e-09
3.63732e-23
-1.76169e-09
-2.96005e-13
-1.76139e-09
3.16216e-13
-1.76072e-09
-3.39216e-13
-3.56737e-13
-1.3128e-27
1.35789e-27
7.17508e-28
-1.76141e-09
-2.44445e-23
0
2.40533e-23
1.76141e-09
-1.76141e-09
-3.52281e-09
0
1.7614e-09
-1.21205e-23
1.7614e-09
-3.52278e-09
-1.76139e-09
-3.52276e-09
1.76137e-09
0
-2.44439e-23
-2.44493e-23
-2.44409e-23
2.07832e-13
-7.45978e-28
1.83814e-23
1.20987e-23
-2.40283e-13
2.47107e-13
2.53761e-13
0
-2.67877e-13
-2.75986e-13
1.21273e-23
2.95452e-13
3.06696e-13
0
-3.28955e-13
-1.21229e-23
2.42e-23
-3.58655e-13
1.2317e-23
-1.19272e-23
-1.76139e-09
0
-1.25158e-23
0
3.9152e-25
-1.21227e-23
0
0
0
1.21253e-23
-1.17323e-23
1.21243e-23
0
0
0
1.21242e-23
0
-1.25212e-23
-1.21242e-23
-1.21244e-23
1.67208e-10
1.76117e-09
1.95256e-25
6.05007e-24
-2.38897e-13
1.76163e-09
1.76164e-09
0
-2.68149e-13
1.76111e-09
1.19278e-23
1.76169e-09
3.14213e-13
1.76139e-09
-3.47088e-13
1.76137e-09
-1.20975e-23
-3.45193e-13
2.48349e-23
3.91119e-25
1.76117e-09
1.76138e-09
-1.76116e-09
0
-1.76162e-09
-2.45102e-13
1.76164e-09
2.59537e-13
-2.67344e-13
5.64205e-27
-1.76139e-09
6.64542e-29
1.21002e-23
1.76139e-09
1.21002e-23
6.04751e-24
3.77648e-13
-1.76135e-09
-1.76135e-09
-1.76148e-09
5.92929e-10
5.18391e-14
5.38802e-14
0
-5.76969e-14
-5.94199e-14
6.10706e-14
6.27364e-14
-6.4536e-14
-2.01579e-24
-4.75707e-28
-2.01668e-24
-4.0334e-24
-4.03396e-24
-4.03341e-24
-4.03405e-24
9.85769e-14
0
0
0
-5.63332e-09
-4.96172e-09
-2.51075e-09
1.91432e-10
2.47587e-09
5.03154e-09
-4.65867e-09
1.01309e-09
7.59939e-10
0
-2.76426e-09
-8.54036e-09
-5.69611e-09
-8.24943e-09
2.68377e-09
-9.82089e-10
6.86961e-09
-3.60384e-09
2.20951e-09
-6.04918e-10
5.46378e-09
5.74839e-09
2.96124e-09
-1.02602e-09
-3.0996e-09
7.79881e-10
6.31676e-10
-2.85746e-09
1.84621e-10
-3.32404e-09
-7.92246e-44
2.53636e-09
8.06966e-09
8.0467e-09
-2.95053e-09
1.13144e-09
-8.08371e-09
-1.49529e-09
2.58615e-10
-6.60508e-10
-7.17984e-11
-5.41197e-09
0
2.89569e-09
2.97751e-10
-2.44517e-09
4.71179e-09
6.06378e-09
2.29971e-09
6.91926e-09
1.35695e-10
-2.96716e-09
-3.03097e-09
2.85926e-10
2.77522e-09
-4.81703e-09
-5.52678e-10
1.69771e-09
-6.32224e-09
5.24871e-10
-6.87454e-44
7.96096e-09
-2.81542e-09
-1.95525e-10
1.05474e-09
1.30004e-10
9.27577e-10
-8.35588e-10
-5.98228e-09
-3.89765e-09
2.59404e-09
2.70416e-09
-6.43257e-11
-2.46637e-09
5.16017e-09
4.37986e-09
1.11068e-10
1.63421e-09
1.01104e-08
6.08137e-10
-5.27073e-09
-7.74601e-09
1.11802e-10
-7.15089e-10
-4.64709e-09
3.25873e-09
-7.27042e-09
4.9604e-09
1.05917e-08
7.51663e-09
-7.90629e-09
-8.05281e-09
2.20098e-09
5.02746e-10
-1.24255e-08
-4.47013e-09
-1.1121e-09
-4.19955e-09
-6.12196e-09
-1.15732e-09
1.30625e-08
7.49232e-09
2.42358e-09
-1.9658e-09
5.23617e-09
-7.67975e-09
-6.01848e-10
-6.45647e-09
-6.13705e-09
-5.04646e-11
5.328e-09
7.84816e-09
1.30648e-10
1.30227e-10
7.71052e-09
4.57763e-10
1.50947e-09
1.43748e-09
5.43959e-10
1.09036e-09
-7.82036e-09
-2.60276e-09
-2.4097e-09
-4.2852e-11
2.86426e-09
4.47729e-09
5.93481e-09
1.05635e-11
1.06467e-11
-5.48214e-09
-4.14406e-44
-2.5609e-09
-2.52259e-09
-1.38956e-10
-2.34789e-09
-2.57042e-11
-2.1662e-09
2.60109e-10
4.01743e-09
-2.14423e-09
-3.71894e-44
0
7.50302e-09
0
5.05335e-09
-4.6853e-09
-2.82244e-09
1.3452e-09
4.33848e-10
2.86886e-09
2.54396e-09
-1.41232e-10
-4.87799e-09
-7.76461e-11
3.55931e-10
4.9008e-09
-4.90809e-09
-2.07648e-09
-6.08881e-09
-2.60202e-10
2.74456e-11
9.2271e-11
-7.51138e-09
7.16572e-09
-7.10542e-09
4.82583e-09
-5.66916e-11
-2.40759e-09
2.01838e-09
1.92394e-09
-9.1201e-12
-4.99856e-09
1.22218e-08
2.48092e-09
1.65671e-10
0
4.40834e-09
-1.22745e-10
-2.68578e-10
2.40838e-11
-4.97283e-09
2.41253e-09
-8.50033e-12
-7.15331e-09
2.38195e-09
2.2796e-09
0
2.12058e-09
-2.03003e-09
1.53905e-11
-2.50869e-09
2.48801e-09
-2.45385e-09
-8.06341e-10
7.78935e-10
7.65104e-10
-1.04148e-12
7.07127e-10
-1.02972e-11
1.28361e-09
)
;

boundaryField
{
    left
    {
        type            symmetryPlane;
    }
    right
    {
        type            calculated;
        value           nonuniform List<scalar> 
30
(
2.53009e-09
3.65479e-09
-1.4029e-11
2.89554e-09
9.49791e-10
-2.69016e-09
-1.42331e-09
-4.39547e-09
1.75774e-09
2.91844e-09
1.34755e-10
-6.45115e-24
1.7613e-09
1.76131e-09
-3.52263e-09
-1.21228e-23
1.21259e-23
-1.76133e-09
1.76133e-09
-3.8996e-25
1.21239e-23
1.21239e-23
0
1.35789e-27
-2.44409e-23
-1.19272e-23
-1.21244e-23
3.91119e-25
-1.76148e-09
0
)
;
    }
    down
    {
        type            symmetryPlane;
    }
    up
    {
        type            calculated;
        value           nonuniform List<scalar> 
30
(
-3.3862e-14
4.1117e-14
-3.92759e-14
-3.44467e-15
1.96242e-14
-2.72032e-15
3.45728e-16
7.34834e-15
2.02724e-14
3.20403e-14
-1.86058e-14
-2.76926e-14
-2.90351e-14
0
3.15878e-14
3.27871e-14
-3.3961e-14
-3.51442e-14
3.63723e-14
-5.24367e-28
2.69197e-28
-1.68355e-29
-1.30478e-29
2.96743e-28
-5.88935e-30
3.37394e-28
-4.92618e-14
0
0
0
)
;
    }
    hole
    {
        type            calculated;
        value           nonuniform List<scalar> 
20
(
-5.58203e-13
2.64306e-09
0
1.65462e-09
8.9374e-10
2.13532e-09
-5.79122e-10
-1.24912e-09
-5.01769e-10
-1.69596e-10
4.30402e-09
4.24094e-09
2.09429e-09
-4.11e-09
3.7634e-09
5.81755e-09
-3.42101e-10
-5.32498e-09
-5.03029e-09
-7.49526e-14
)
;
    }
    frontAndBack
    {
        type            empty;
    }
}


// ************************************************************************* //
