/*--------------------------------*- C++ -*----------------------------------*\
  =========                 |
  \\      /  F ield         | OpenFOAM: The Open Source CFD Toolbox
   \\    /   O peration     | Website:  https://openfoam.org
    \\  /    A nd           | Version:  dev
     \\/     M anipulation  |
\*---------------------------------------------------------------------------*/
FoamFile
{
    version     2.0;
    format      ascii;
    class       volScalarField;
    location    "60";
    object      sigmaxy;
}
// * * * * * * * * * * * * * * * * * * * * * * * * * * * * * * * * * * * * * //

dimensions      [1 -1 -2 0 0 0 0];

internalField   nonuniform List<scalar> 
1000
(
349.201
-3180.93
-4467.34
-5321.68
-5796.92
-6067.45
-6238.18
-6277
-6261.35
-5647.98
11977.6
756.086
-5126.46
-8537.8
-10492.9
-11582.6
-12167.6
-12321.1
-11991
-10814.2
21986.4
3859.14
-5839.44
-11414.2
-14497.2
-16125.6
-16832.1
-16830.9
-16220.5
-14973.4
29577.4
6282.75
-6368.53
-13404.3
-17242.5
-19156.2
-19888.7
-19772.8
-19040.3
-17891.8
33789
7821.69
-6332.99
-14188.1
-18381
-20431.4
-21153.3
-20992.2
-20274.4
-19279.9
34379.9
8396.8
-5830.57
-13629
-17790.1
-19803.2
-20514
-20385.9
-19750.7
-18933.8
31092.5
8044.7
-4726.81
-11765.7
-15515.1
-17348.2
-18011.1
-17942.7
-17452.5
-16838
24646.7
6818.68
-3213.19
-8797.58
-11802.3
-13282
-13850.6
-13845.1
-13521.7
-13116.6
15831.7
5069.93
-1278.52
-4910.89
-6884.3
-7883.91
-8281.24
-8326.93
-8164.61
-7974.83
5636.51
3179.77
1261.55
43.8567
-656.047
-1050.18
-1240.17
-1321.97
-1326.59
-1328.86
-6577.06
-3901.4
-1747.12
-386.985
393.998
833.492
1056.91
1153.52
1176.38
1182.28
-18817
-7172.9
-173.179
3712.34
5853.5
6966.54
7444.84
7543.61
7421.31
7247.16
-29336.4
-10819.5
155.547
6266.28
9598.82
11334.5
12086.1
12232
12017.3
11692
-37045.3
-13998
-87.506
7623.1
11895.7
14142.6
15145
15360.8
15092.2
14642.2
-41223.2
-16322.8
-961.872
7819.04
12715.8
15337.5
16547.7
16846.6
16562.6
16004.9
-41308.3
-17572.4
-1989.66
6975.97
12102.9
14907.8
16270.5
16664.6
16398.1
15741.9
-37786.6
-16873.7
-2924.35
5413.78
10248.7
12992.9
14408.8
14897.2
14691.4
13934.9
-31414.7
-14823.2
-3425.77
3392.65
7402.62
9762.23
11096.8
11683.1
11594
10762.8
-22080.8
-11406.3
-3658.25
921.174
3665.21
5329.97
6408.41
7020.25
7185.48
6580.1
-11405.6
-7436.66
-4088.08
-2114.19
-921.185
-156.573
393.291
790.932
1297.76
1609.89
1091.24
935.975
827.319
724.844
620.359
514.894
410.702
309.565
211.364
116.65
22.634
-68.5164
-162.864
-262.38
-371.48
-485.759
-617.581
-725.251
-704.232
-330.421
6720.22
5980.91
5427.1
4916.16
4426.64
3960.78
3522.99
3114.37
2731.99
2373
2030.3
1698.9
1365.38
1031.86
673.003
290.744
-120.99
-517.865
-838.522
-888.044
10843.7
9743.38
8931.94
8163.23
7410.43
6683.2
5992.09
5341.22
4728.5
4149.09
3593.63
3054.63
2516.84
1964.18
1383.16
764.972
88.3988
-599.695
-1220.14
-1498.86
13571.1
12324.2
11453
10592.1
9715.29
8842.39
7992.9
7177.36
6397.53
5649.86
4926.09
4213.69
3496.53
2760.06
1977.99
1129.32
201.508
-763.663
-1670.75
-2108.8
14803.2
13635.3
12914.7
12143.2
11299.9
10415.3
9519.25
8630.89
7759.06
6904.64
6061.65
5220.02
4361.55
3461.75
2498.24
1445.71
271.387
-965.854
-2132.72
-2702.38
14491.3
13619.8
13250.1
12749.5
12101.1
11346.2
10521.5
9658.76
8774.7
7879.84
6972.91
6046.02
5081.27
4056.91
2937.87
1689.52
285.604
-1210.14
-2619.2
-3279.81
12685.8
12292.3
12438.4
12369.4
12065.6
11573
10931.7
10189.1
9369.92
8499.6
7581.39
6617.51
5588.99
4470.91
3227.52
1818.03
196.946
-1552.06
-3181.24
-3842.43
9572.33
9789.59
10594.7
11075.5
11258.3
11129.6
10784.3
10237.5
9565.84
8774.52
7905.36
6944.53
5896.09
4725.59
3398.64
1865.78
76.8699
-1902.65
-3722.02
-4347.36
5552.32
6588.04
8074.06
9202.42
9915.63
10258.6
10270.2
10020.5
9554.72
8924.05
8150.69
7254.53
6225.43
5048.42
3685.88
2097.84
204.51
-1883.12
-3971.11
-4915.31
1072.61
3118.7
5191.33
6894.14
8173.66
9038.12
9509.16
9639.75
9481.97
9081.78
8483.57
7698.32
6746.76
5596
4245.05
2639.15
793.163
-1437.04
-3958.97
-5343.1
-1063.72
1092.65
2949.58
4664.36
6141.79
7277.31
8067.07
8508.28
8642.55
8499.09
8111.96
7502.69
6673.08
5621.58
4324.38
2796.75
994.87
-1187.33
-3924.14
-5797.07
-2626.25
-463.547
1344.04
2984.3
4448.32
5663.21
6581.32
7188.63
7494.28
7517.83
7279.51
6793.24
6063.91
5081.12
3838.45
2373.36
705.117
-1462.06
-4269.59
-6154.48
-4104.04
-1944.86
-176.115
1385.69
2797.28
4017.87
4998.26
5706.37
6132.98
6281.25
6159.54
5774.19
5125.61
4204.44
3009.82
1598.31
5.05792
-2035
-4793.3
-6508.1
-5618.54
-3463.66
-1683.79
-147.814
1224.46
2430.99
3433.42
4197.62
4701.87
4937.93
4902.51
4594.59
4009.91
3136.93
1977.79
612.868
-888.173
-2850.92
-5450.7
-6780.62
-6979.35
-4877.72
-3107.86
-1580.92
-225.107
970.771
1982.03
2776.86
3330.06
3625.28
3651.36
3400.01
2862.41
2024.84
893.704
-437.639
-1879.41
-3699.99
-6117.1
-7052.41
-8052.98
-6076.31
-4348.31
-2838.58
-1494.81
-306.496
707.789
1519.55
2102.89
2437.36
2506.18
2295.61
1792.3
979.824
-133.338
-1436.15
-2809.53
-4545.02
-6754.61
-7272.95
-8795.62
-6960.33
-5319.5
-3854.26
-2534.91
-1359.75
-348.742
470.351
1071.34
1431.59
1530.82
1350.71
873.703
80.6323
-1018.36
-2303.73
-3639.81
-5260.17
-7314.13
-7515.65
-9176.1
-7509.16
-5981.89
-4586.18
-3309.55
-2159.27
-1160.64
-343.177
265.89
642.664
764.535
609.871
157.317
-616.757
-1704.5
-2976.98
-4278.69
-5867.26
-7799.18
-7729.21
-9212.88
-7718.93
-6322.46
-5016.87
-3799.43
-2687.23
-1711.5
-905.162
-296.841
88.7422
227.849
97.2063
-328.042
-1076.84
-2146.8
-3413.3
-4719.41
-6275.83
-8182.66
-7980.11
-8955.42
-7628.58
-6358.53
-5149.21
-4000.9
-2937.45
-1994.85
-1209.4
-611.248
-225.369
-74.7547
-182.121
-573.419
-1283.66
-2321.71
-3572.59
-4882.93
-6510.72
-8470.7
-8211.52
-8453.68
-7264.03
-6111.92
-4996.77
-3921.79
-2914.02
-2013.02
-1258.01
-680.487
-305.16
-152.395
-240.904
-593.549
-1246.94
-2222.52
-3431.81
-4759.72
-6457.34
-8596.34
-8481.53
-7730.67
-6653.05
-5604.86
-4576.99
-3575.16
-2626.3
-1773.1
-1056.66
-510.79
-159.566
-20.458
-103.835
-421.78
-1003.19
-1875.29
-2979.26
-4254.39
-6083.32
-8522.83
-8725.8
-6794.46
-5812.32
-4851.26
-3902.84
-2970.25
-2080.45
-1277.5
-604.722
-99.0016
213.642
317.758
212.344
-96.1009
-610.447
-1342.27
-2250.45
-3373.71
-5233.76
-8057.05
-8948.76
-5663.08
-4751.51
-3857.88
-2978.5
-2107.83
-1274.56
-519.102
110.091
573.721
837.565
884.488
716.511
362.404
-136.722
-735.603
-1357.48
-2114.47
-3814.32
-7070.38
-9074.66
-4329.74
-3462.77
-2621.89
-1798.05
-983.215
-198.972
515.019
1109.79
1538.48
1756.96
1735.09
1465.86
989.785
390.282
-182.582
-519.018
-739.581
-1938.86
-5286.32
-8919.05
-2775.37
-1936.16
-1142.25
-366.666
396.018
1138.74
1819.32
2394.85
2806.51
3002.53
2926.48
2548.86
1882.92
1026.45
238.836
-79.2064
219.794
100.885
-2741.42
-8428.45
-1012.55
-218.316
530.748
1249.14
1958.86
2654.48
3306.67
3869.99
4288.24
4496.19
4418.43
3984.79
3147.3
1945.73
646.277
-152.427
197.623
999.21
-296.087
-7024.74
815.856
1524.44
2193.99
2825.67
3454.83
4077.94
4679.93
5216.86
5644.32
5893.51
5887.2
5521.84
4683.89
3298.2
1446.28
-369.444
-1236.38
-282.87
752.147
-4719.23
2281.33
2872.55
3390.06
3876.67
4359.65
4848.62
5329.31
5779.09
6163.75
6440.06
6546.31
6395.56
5862.55
4782.43
2984.74
517.103
-1860.59
-2573.95
-589.006
-1198.86
3527.82
3834.8
4100.09
4352.84
4598.54
4842.89
5083.71
5321.63
5551.55
5769.53
5964.59
6120.92
6210.48
6176.25
5919.11
5267.06
3980.83
2264.88
1117.71
559.319
-1228
-7410.74
-12163
-15571.2
-17459.4
-17694.4
-16287.7
-13379.9
-9253.46
-4159.36
-1065.52
-6632.73
-10953.1
-14126.6
-16010.8
-16483.4
-15518.8
-13204.6
-9820.69
-5579.98
-958.262
-6067.56
-10087.9
-13141.1
-15112.8
-15884.7
-15399.7
-13700.7
-10963.3
-7237.02
-859.07
-5552.99
-9288.09
-12206.7
-14221.8
-15224.1
-15145.3
-13990
-11852.8
-8653.24
-757.723
-5059.94
-8512.23
-11276.1
-13289
-14457.1
-14707.6
-14021.8
-12415.4
-9780.46
-654.049
-4587.55
-7762.41
-10355.6
-12327.7
-13600.2
-14100
-13786.5
-12638.8
-10540
-549.893
-4138.71
-7044.88
-9457.8
-11357.4
-12678.6
-13350.7
-13325
-12553.1
-10945
-447.784
-3716.65
-6364.78
-8592.4
-10395.2
-11718.6
-12497.5
-12673.9
-12192.6
-10994.5
-347.609
-3318.72
-5721.44
-7762.41
-9449.78
-10739.3
-11569.4
-11878.3
-11606.8
-10740.9
-250.874
-2944.78
-5112.51
-6967.24
-8526.57
-9754.73
-10591.6
-10972.4
-10845.8
-10231.2
-154.82
-2586.27
-4530.58
-6200.39
-7623.7
-8768.13
-9577.54
-9987.47
-9953.23
-9521.02
-60.2591
-2243.46
-3967
-5453.54
-6732.65
-7777.54
-8533.19
-8936.26
-8946.32
-8633.27
39.3775
-1898.78
-3406.1
-4708.96
-5835.72
-6767.7
-7447.56
-7813.1
-7828.2
-7583.46
139.851
-1549.38
-2837
-3944.89
-4913.09
-5714.93
-6300.54
-6600.45
-6592.08
-6375.06
255
-1173.38
-2233.49
-3138.06
-3931.31
-4586.34
-5055.57
-5271.14
-5215.44
-4990.42
379.638
-782.857
-1591.6
-2278.52
-2871.82
-3361.55
-3690.98
-3802.66
-3672.04
-3407.42
513.958
-364.059
-922.779
-1368.33
-1743.71
-2041.53
-2214.74
-2199.17
-1976.85
-1648.43
618.01
15.9042
-277.631
-469.539
-616.018
-710.17
-717.565
-572.205
-259.243
100.101
603.691
320.83
304.635
364.015
448.015
548.407
696.085
940.816
1275.69
1616.48
267.452
559.006
907.147
1259.11
1602.53
1934.19
2259
2583.79
2891.27
3183.88
)
;

boundaryField
{
    left
    {
        type            symmetryPlane;
    }
    right
    {
        type            calculated;
        value           nonuniform List<scalar> 
30
(
-166.818
-824.658
-1456.49
-2062.66
-2648.47
-3200.51
-3706.11
-4204.49
-4761.35
-5380.5
-5899.42
-6264
-6512.22
-6674.54
-6793.58
-6902.67
-7024.25
-7169.51
-7346.43
-7560.53
-7821.42
-8138.49
-8525.48
-8984.09
-9490.48
-9945.95
-9891.45
-7964.7
-325.873
17101.9
)
;
    }
    down
    {
        type            symmetryPlane;
    }
    up
    {
        type            calculated;
        value           nonuniform List<scalar> 
30
(
121.264
591.91
1032.8
1450.16
1853.08
2241.92
2610.1
2951.15
3266.58
3553.23
3788.7
3990.92
4184.4
4372.37
4552.28
4725.12
4894.29
5064.82
5241.79
5430.49
5636.09
5864.17
6122.17
6418.94
6760.03
7096.13
7099.37
5766.09
307.781
-16433.1
)
;
    }
    hole
    {
        type            calculated;
        value           nonuniform List<scalar> 
20
(
1654.81
14834.9
26350.5
34943.1
39725
40198.9
36234.1
28503.8
17998
5968.23
-6945.68
-21106.2
-33177.2
-41761.4
-46263.3
-45860
-41643.3
-34238.6
-23717.3
-11671.9
)
;
    }
    frontAndBack
    {
        type            empty;
    }
}


// ************************************************************************* //
