/*--------------------------------*- C++ -*----------------------------------*\
  =========                 |
  \\      /  F ield         | OpenFOAM: The Open Source CFD Toolbox
   \\    /   O peration     | Website:  https://openfoam.org
    \\  /    A nd           | Version:  dev
     \\/     M anipulation  |
\*---------------------------------------------------------------------------*/
FoamFile
{
    version     2.0;
    format      ascii;
    class       volScalarField;
    location    "60";
    object      sigmaxz;
}
// * * * * * * * * * * * * * * * * * * * * * * * * * * * * * * * * * * * * * //

dimensions      [1 -1 -2 0 0 0 0];

internalField   nonuniform List<scalar> 
1000
(
6.3775e-10
4.32564e-09
-3.49074e-09
-2.58003e-09
5.92731e-09
3.00562e-09
-2.26431e-09
-4.89437e-10
-6.83755e-09
0
-3.31614e-09
0
2.72926e-09
-5.05467e-09
-2.5037e-09
4.91613e-09
2.08636e-09
2.05695e-09
0
0
0
0
3.06046e-09
2.12869e-09
3.26656e-11
-4.80235e-09
-3.89288e-10
-2.19623e-09
2.79486e-09
7.09119e-10
-1.65611e-09
-1.60201e-09
-1.64689e-09
1.78217e-09
4.64615e-09
-2.55877e-09
-2.33352e-09
-5.60625e-09
-3.53896e-09
2.67245e-09
-2.1476e-09
3.85475e-11
-4.83594e-09
-7.63508e-10
1.71995e-09
4.43367e-09
1.06524e-09
1.3394e-09
-6.46206e-09
-1.81486e-09
-4.05238e-09
3.18689e-11
-3.18776e-11
-6.31218e-10
-2.94355e-09
-7.87071e-11
2.5131e-09
6.84833e-09
1.12186e-09
-3.04521e-09
1.66347e-09
-8.15035e-10
1.72024e-09
5.45045e-10
4.14067e-09
-3.94409e-09
-2.48067e-09
-2.49865e-09
1.33969e-09
-7.75489e-10
6.26292e-09
-3.8533e-09
-2.75048e-11
-7.47533e-10
6.85662e-09
7.83545e-10
3.59633e-11
-2.009e-09
-4.72142e-10
-2.29285e-10
4.37061e-09
-3.68225e-09
-3.9048e-10
-6.64732e-10
5.04541e-10
3.35878e-09
-5.26252e-10
5.09039e-09
1.19825e-09
1.58304e-09
4.39581e-09
1.14269e-10
1.65699e-09
-1.50435e-10
7.23499e-12
3.05164e-09
-1.83017e-10
2.56428e-09
1.97509e-10
4.96768e-11
1.35699e-09
2.99905e-09
-1.82457e-09
0
-4.10459e-09
-4.30191e-11
4.47348e-09
2.26588e-09
2.60844e-09
2.70896e-10
8.1496e-11
1.84109e-09
-1.90556e-09
-1.81076e-09
0
-2.27059e-10
4.62895e-09
1.69393e-11
-1.02688e-08
1.60935e-10
-4.45501e-10
1.91232e-09
3.28587e-10
-1.78837e-09
0
-6.75777e-10
-9.52282e-10
2.82264e-09
3.01833e-12
-2.96255e-09
7.64179e-10
-1.48868e-09
4.1884e-10
0
2.9974e-09
6.37134e-09
-4.26659e-09
-6.86281e-09
2.83104e-10
7.11167e-10
-1.13177e-09
2.15602e-09
-6.8669e-10
3.5943e-09
5.51581e-11
-3.04618e-09
2.19744e-10
0
-5.35663e-09
2.81097e-10
-3.45362e-09
-2.67035e-09
-2.30062e-09
-1.65596e-09
1.18406e-09
2.66759e-09
2.65932e-11
-3.23897e-09
2.79492e-12
-1.12133e-09
-9.58452e-10
-5.33563e-11
-8.03422e-11
-3.32743e-09
3.58412e-09
-1.47499e-09
2.81643e-09
1.48833e-11
-1.56348e-09
-8.72461e-10
2.85107e-09
-2.44505e-09
1.47776e-09
-1.45231e-09
1.53212e-10
-2.09732e-09
-3.74688e-09
3.78514e-09
2.16801e-09
2.88281e-09
4.63293e-09
4.86326e-09
-7.23178e-11
5.21377e-10
2.00973e-09
1.70161e-09
3.82844e-09
-2.48481e-09
-2.37505e-09
6.76402e-10
8.68321e-11
1.20362e-09
-1.33659e-09
5.4771e-10
-4.31732e-11
-2.1825e-09
3.1898e-09
-1.17118e-09
-5.54558e-09
6.47476e-09
5.58735e-09
1.84821e-10
-8.10711e-09
-2.71813e-09
-2.15355e-10
0
0
2.65377e-09
6.46748e-11
5.24336e-09
1.67854e-10
-6.98167e-11
1.40541e-10
-7.74181e-09
2.52956e-09
9.1427e-12
-2.53956e-09
2.51678e-09
-4.9732e-09
-2.50793e-09
8.38328e-09
1.75646e-10
-2.63462e-09
8.37383e-09
1.05597e-10
-8.15023e-09
2.58112e-10
0
5.53207e-11
2.06991e-10
2.92131e-09
5.26314e-11
-2.53771e-09
2.55182e-09
2.57642e-09
-2.52543e-09
-2.52126e-09
-4.99886e-09
-4.16445e-11
1.65579e-09
2.6971e-09
2.67333e-10
-8.01066e-09
2.23239e-09
8.23131e-09
-8.00158e-09
-2.77756e-09
5.20774e-09
-4.81571e-09
-5.26172e-09
5.00399e-09
7.59123e-09
4.96925e-11
-2.52267e-09
2.4712e-09
8.6514e-12
-2.48552e-09
2.42514e-09
2.36497e-09
9.18644e-13
0
2.51889e-10
2.6125e-09
2.8711e-09
0
-2.27913e-09
-2.95314e-09
-5.07076e-09
-3.85598e-10
4.72307e-09
2.20686e-09
4.15366e-10
-2.04573e-09
2.31931e-09
2.36887e-09
-2.43638e-09
-7.63422e-12
7.21668e-09
-2.34432e-09
-2.41635e-09
4.94996e-09
-4.43289e-10
-5.51447e-09
2.61651e-09
6.22968e-09
-2.59357e-09
0
2.46212e-09
-6.83938e-10
-2.7254e-09
-4.3336e-09
-4.76784e-09
6.48869e-09
7.05297e-09
1.52211e-10
-2.24457e-09
1.89092e-10
7.59364e-11
4.75003e-09
2.34633e-09
2.77872e-09
1.12595e-10
-2.88116e-09
-8.15282e-09
2.57006e-09
4.96501e-09
-2.40861e-09
1.97228e-09
3.50439e-09
-6.97366e-09
-2.50193e-09
1.11888e-08
1.32611e-09
-6.93561e-09
-2.15392e-09
-4.92332e-09
-5.62605e-11
6.92642e-09
2.24029e-09
9.37385e-12
-2.73981e-09
2.27451e-09
6.56857e-10
-2.37763e-09
-9.39691e-10
4.47055e-10
3.34123e-09
-5.92116e-09
-3.48804e-09
5.72189e-09
-6.28462e-10
6.69008e-09
2.8709e-09
-6.39099e-09
3.72435e-09
1.13079e-10
-6.86216e-09
2.20198e-09
2.2656e-09
6.77821e-12
1.41682e-10
-2.16788e-09
-1.6976e-09
0
0
-5.08396e-09
6.31427e-09
1.17838e-08
-1.03255e-08
-7.2122e-09
4.30426e-09
1.71182e-09
9.94718e-10
5.13415e-09
1.51039e-10
-5.33965e-09
0
-2.44965e-10
6.24587e-11
2.26811e-11
-1.57556e-10
7.40807e-10
-8.69733e-10
-8.41046e-10
3.74745e-09
1.70787e-09
-3.32882e-09
-3.10938e-09
1.46488e-09
3.24131e-09
-1.65407e-09
9.32049e-11
-5.69163e-09
-1.33923e-10
5.06269e-10
-8.21854e-11
7.87289e-09
-1.08391e-10
-8.21426e-09
-1.36607e-09
2.62735e-11
-6.46375e-10
1.86294e-09
-6.40689e-09
-5.6547e-09
4.76667e-09
5.52727e-09
5.65802e-09
-3.86333e-09
1.61301e-10
-5.66616e-10
-5.59043e-09
0
9.24479e-10
-1.2116e-10
-6.82437e-10
1.84171e-09
2.31768e-10
-3.18524e-11
-2.15081e-11
2.46932e-09
-6.72117e-10
-1.12527e-09
5.99107e-10
6.37614e-10
1.87588e-10
-2.2482e-09
-1.31234e-09
2.9949e-09
-3.73576e-10
1.0073e-09
-2.98466e-10
0
-2.2442e-10
1.88194e-10
-1.52743e-10
-1.64393e-09
8.3427e-11
4.9905e-11
5.7384e-12
1.68448e-09
0
-1.76133e-09
2.97225e-23
-3.11816e-24
1.25244e-23
2.44423e-23
-1.76137e-09
0
1.76139e-09
-1.81874e-23
-1.76141e-09
1.76141e-09
1.2123e-23
-1.76143e-09
-1.21005e-23
1.76145e-09
1.76145e-09
-1.21015e-23
-4.03371e-24
1.7615e-09
1.87461e-13
-1.76114e-09
0
1.76155e-09
1.76178e-09
-1.76115e-09
-1.76093e-09
1.76138e-09
4.48673e-13
2.25739e-13
4.53472e-13
4.54817e-13
2.27819e-13
4.56024e-13
4.56038e-13
-1.76145e-09
2.2756e-13
2.26955e-13
4.50633e-14
6.80314e-09
-1.82633e-13
-3.52249e-09
5.94448e-23
3.52291e-09
0
-2.16611e-13
-3.52275e-09
7.27426e-23
3.52278e-09
2.30112e-13
-1.21004e-23
-7.26023e-23
-2.34207e-13
-3.63015e-23
-3.52288e-09
2.34656e-23
3.52314e-09
2.33932e-13
4.66654e-14
-3.34385e-13
1.76117e-09
-3.73175e-13
1.17337e-23
1.76095e-09
-1.76158e-09
-1.76159e-09
-4.43829e-13
1.76139e-09
1.76116e-09
-4.67432e-13
-1.76165e-09
-1.76189e-09
-2.39614e-13
1.76095e-09
-2.40906e-13
3.9112e-25
1.76097e-09
-4.79459e-13
-9.61349e-14
4.99922e-11
1.7222e-13
-1.76136e-09
0
1.76137e-09
1.76116e-09
-1.76116e-09
-1.76139e-09
1.76139e-09
-2.33231e-13
6.07105e-24
-2.40404e-13
0
2.44737e-13
0
-2.46485e-13
-1.76145e-09
6.04863e-24
-1.68781e-27
-2.01712e-24
1.71473e-09
-1.68324e-13
-1.76137e-09
3.05041e-23
-1.79808e-23
-2.09287e-13
-2.17326e-13
-1.76139e-09
0
1.76117e-09
-4.24098e-23
-1.76166e-09
1.76142e-09
-2.5006e-13
-1.76143e-09
-2.52297e-13
1.76145e-09
1.76145e-09
1.72795e-27
-4.0332e-24
-1.52709e-13
-1.65978e-13
-1.78366e-13
0
-2.00417e-13
0
-2.18875e-13
0
0
0
-2.45199e-13
0
0
-2.55914e-13
0
0
0
-2.58478e-13
-2.57587e-13
-5.23843e-14
-1.71657e-09
0
1.7826e-13
0
2.0158e-13
2.1191e-13
0
0
0
2.44241e-13
2.50115e-13
2.55124e-13
0
0
0
2.66124e-13
0
2.66116e-13
2.65237e-13
5.41121e-14
-5.19242e-09
1.66331e-13
5.67168e-24
1.17347e-23
1.76141e-09
-1.7612e-09
-1.76119e-09
0
1.76142e-09
1.76167e-09
-6.05199e-24
-1.76117e-09
-1.76143e-09
2.69876e-13
1.76144e-09
2.74616e-13
3.89228e-25
1.76145e-09
-1.9178e-27
-2.01679e-24
1.76142e-09
-1.19192e-23
-1.76142e-09
0
1.76142e-09
1.76142e-09
-1.76142e-09
-1.76142e-09
1.76143e-09
-2.40501e-23
-3.87567e-25
1.19309e-23
-1.87846e-27
3.65536e-23
-1.21266e-23
1.21257e-23
-1.76145e-09
1.96725e-27
-1.20987e-23
4.02131e-28
-5.17875e-09
-6.04847e-24
-1.94273e-25
1.25157e-23
1.76143e-09
-1.76143e-09
-1.76143e-09
0
1.76143e-09
1.76144e-09
1.82097e-27
-1.76144e-09
-1.76144e-09
1.21006e-23
1.76144e-09
-3.91119e-25
3.9112e-25
1.76145e-09
-1.20986e-23
4.21525e-28
5.83846e-11
1.7842e-13
-1.76145e-09
0
1.76144e-09
1.76121e-09
-1.7612e-09
-1.76094e-09
1.76144e-09
-2.68773e-13
-3.94925e-25
-2.8335e-13
5.79358e-13
2.95589e-13
6.02401e-13
-3.06416e-13
-1.76145e-09
0
-1.21006e-23
0
1.69606e-09
-1.85269e-13
-1.76146e-09
1.17351e-23
8.40987e-24
-2.37064e-13
3.52266e-09
-1.76145e-09
-3.5229e-09
1.76117e-09
2.99869e-26
1.76116e-09
1.76145e-09
-3.04776e-13
-1.76145e-09
-3.52323e-09
1.76145e-09
1.76145e-09
6.05032e-24
-2.01677e-24
-6.05042e-24
-1.93555e-13
-2.88035e-27
0
3.18839e-27
2.45437e-13
-2.56718e-13
-5.34605e-13
0
2.86201e-13
-2.42034e-23
3.01748e-13
-6.16663e-13
-3.14462e-13
-6.41557e-13
3.28117e-13
0
-4.8165e-27
2.41964e-23
-4.03458e-24
-1.76149e-09
6.06251e-24
5.67363e-24
1.17354e-23
1.76148e-09
-1.76148e-09
-1.76148e-09
0
1.76147e-09
1.76147e-09
-1.8149e-23
-1.76147e-09
-1.76147e-09
0
1.76147e-09
-6.45588e-24
3.95876e-25
1.76147e-09
1.21033e-23
-2.01732e-24
-1.99664e-13
0
3.02363e-24
0
-3.02518e-24
-1.21027e-23
0
0
0
-6.04829e-24
-6.05252e-24
2.24347e-27
0
0
0
2.37233e-27
0
3.02496e-23
-2.60095e-27
-5.85575e-28
-3.30939e-09
1.76174e-09
2.34683e-24
1.96428e-25
1.76151e-09
-1.76123e-09
-1.76121e-09
0
1.76149e-09
1.76181e-09
6.05266e-24
-1.76114e-09
-1.76148e-09
3.53582e-13
1.76147e-09
3.55908e-13
-1.19318e-23
1.7615e-09
4.88903e-27
1.84526e-29
1.76176e-09
2.32768e-13
-1.76177e-09
0
1.76125e-09
1.76151e-09
-1.76122e-09
-1.76151e-09
1.7615e-09
-3.59841e-23
-3.3206e-13
-3.9113e-25
2.44146e-27
3.66391e-13
2.57418e-27
1.21262e-23
-1.76147e-09
-3.31389e-13
-2.73022e-13
-6.83851e-14
-1.63263e-09
-1.76154e-09
-1.76154e-09
0
1.76153e-09
1.76152e-09
-1.76152e-09
-1.76152e-09
1.76151e-09
-2.40558e-23
1.21251e-23
-3.92302e-25
-2.4481e-27
1.21225e-23
-2.71702e-27
1.2122e-23
-1.76144e-09
0
0
0
2.33741e-09
-5.44656e-10
-2.47445e-09
3.85496e-10
-4.35469e-11
2.7544e-09
7.92968e-10
-3.86684e-10
-1.07518e-09
0
1.06818e-11
2.3688e-09
2.35125e-09
1.32993e-09
-9.33458e-11
-3.37824e-09
-1.12621e-10
2.29149e-09
-3.17477e-11
1.51499e-09
-2.11148e-11
-2.35156e-09
-2.3183e-09
3.48508e-09
2.321e-09
3.50627e-09
-1.55179e-10
-3.31277e-09
-4.32855e-11
-1.12e-09
-3.13738e-42
1.12183e-09
-1.60357e-10
-1.32671e-09
1.25238e-09
-2.43727e-09
-3.27172e-09
2.44968e-09
-9.67259e-11
3.88571e-09
1.15141e-09
1.20765e-09
0
-1.24391e-09
-1.16786e-09
6.57495e-11
-1.19287e-10
1.11384e-09
-8.52933e-11
-1.26013e-09
-2.31484e-09
1.221e-09
3.52264e-09
-1.19578e-09
-1.24523e-09
1.29536e-10
1.26298e-09
1.18617e-09
9.09664e-11
-1.60859e-09
-3.136e-42
-8.9825e-11
1.23398e-09
1.17726e-09
-3.68992e-09
-1.12178e-09
3.69746e-09
-2.648e-09
-1.06598e-09
4.26518e-09
1.15927e-09
-4.295e-11
2.17768e-11
2.76428e-11
-1.33224e-09
1.14527e-09
-5.48023e-11
-3.97676e-09
-1.12997e-11
2.6954e-09
2.03688e-11
-1.09784e-09
-1.18139e-09
3.68085e-09
7.28254e-12
-3.7894e-09
1.50173e-09
3.91592e-09
-2.94198e-10
-4.47501e-09
3.05528e-11
2.4749e-09
3.54357e-09
-2.5045e-09
4.39091e-10
-2.16467e-11
2.87114e-09
6.69619e-09
8.81067e-11
-3.35334e-09
-5.04758e-11
3.51171e-09
2.32433e-09
-3.64718e-09
-2.6018e-09
2.82723e-09
2.61289e-09
1.36608e-10
8.83155e-11
2.5607e-13
-2.40842e-09
-2.47311e-09
-1.22632e-09
-1.22219e-09
-2.7663e-09
-2.56299e-09
2.70618e-09
2.69367e-09
4.47557e-09
1.02478e-09
1.23036e-09
1.22833e-09
-1.18843e-09
3.13401e-11
-2.69939e-09
2.38007e-11
3.83773e-09
-2.23454e-13
-1.53158e-13
-1.69173e-09
-3.13405e-42
2.88857e-11
4.48609e-11
1.26924e-09
2.25505e-11
4.79192e-11
-1.40956e-12
-1.40034e-09
-5.778e-11
1.7406e-09
-3.13394e-42
0
-1.3342e-10
0
-2.75109e-09
2.17574e-10
4.18842e-09
4.3226e-09
-1.69612e-09
-4.64519e-09
-9.82685e-12
3.6949e-09
2.73051e-11
8.50235e-11
-2.75016e-09
-3.99933e-09
4.269e-09
-1.66141e-11
1.5684e-10
1.55681e-09
-1.22541e-09
-3.70164e-09
1.70993e-10
2.35593e-09
1.84548e-10
-2.86541e-09
9.90629e-11
2.90553e-09
-2.89993e-11
-9.7149e-12
3.52352e-14
5.63609e-11
3.57241e-09
-1.29505e-10
-3.89322e-09
0
-1.11506e-10
1.4877e-09
3.05355e-09
-1.94434e-09
-3.69486e-09
2.49993e-09
3.72694e-09
-3.68036e-09
-1.36476e-09
-6.124e-11
0
-4.48021e-11
2.91453e-11
-7.75437e-14
3.77496e-09
2.34563e-09
-1.0423e-09
1.39203e-09
1.20637e-09
-1.48049e-09
3.49486e-11
-1.24436e-10
1.58485e-09
1.29589e-09
)
;

boundaryField
{
    left
    {
        type            symmetryPlane;
    }
    right
    {
        type            calculated;
        value           nonuniform List<scalar> 
30
(
4.57297e-14
-4.33636e-14
6.31464e-17
2.14948e-14
-5.27396e-14
3.37538e-14
2.06654e-14
7.24359e-14
-1.17138e-14
-6.15563e-14
-3.20428e-15
2.04367e-28
-4.51876e-14
-4.63139e-14
9.42798e-14
3.45247e-28
-3.0639e-28
4.97484e-14
-5.09761e-14
2.36475e-29
-3.73575e-28
-3.88719e-28
0
7.06067e-30
9.23087e-28
4.69069e-28
4.72446e-28
-1.22716e-29
2.2612e-15
0
)
;
    }
    down
    {
        type            symmetryPlane;
    }
    up
    {
        type            calculated;
        value           nonuniform List<scalar> 
30
(
3.77496e-09
2.34563e-09
-1.0423e-09
1.39203e-09
1.20637e-09
-1.48049e-09
3.49486e-11
-1.24436e-10
1.58485e-09
1.29589e-09
-1.63263e-09
-1.76154e-09
-1.76154e-09
0
1.76153e-09
1.76152e-09
-1.76152e-09
-1.76152e-09
1.76151e-09
-2.40558e-23
1.21251e-23
-3.92302e-25
-2.4481e-27
1.21225e-23
-2.71702e-27
1.2122e-23
-1.76144e-09
0
0
0
)
;
    }
    hole
    {
        type            calculated;
        value           nonuniform List<scalar> 
20
(
5.91828e-13
-3.35303e-09
0
-1.51996e-09
-1.93882e-09
-3.76285e-09
2.05373e-09
6.28027e-09
4.23945e-09
4.31508e-09
-1.69079e-10
-5.01993e-10
-4.16632e-10
1.15927e-09
-2.13571e-09
-2.68224e-09
-6.11861e-10
3.55839e-09
3.96596e-09
6.86251e-14
)
;
    }
    frontAndBack
    {
        type            empty;
    }
}


// ************************************************************************* //
