/*--------------------------------*- C++ -*----------------------------------*\
  =========                 |
  \\      /  F ield         | OpenFOAM: The Open Source CFD Toolbox
   \\    /   O peration     | Website:  https://openfoam.org
    \\  /    A nd           | Version:  dev
     \\/     M anipulation  |
\*---------------------------------------------------------------------------*/
FoamFile
{
    version     2.0;
    format      ascii;
    class       volSymmTensorField;
    location    "60";
    object      sigma;
}
// * * * * * * * * * * * * * * * * * * * * * * * * * * * * * * * * * * * * * //

dimensions      [1 -1 -2 0 0 0 0];

internalField   nonuniform List<symmTensor> 
1000
(
(5693.22 349.201 6.3775e-10 -4420.94 6.88715e-10 -5.07692e+08)
(-18009.1 -3180.93 4.32564e-09 18024.9 4.67741e-09 -5.07692e+08)
(-29206.4 -4467.34 -3.49074e-09 32626 -6.41703e-09 -5.07692e+08)
(-35172.7 -5321.68 -2.58003e-09 39992.2 -2.79039e-09 -5.07691e+08)
(-37799.1 -5796.92 5.92731e-09 43496.7 1.0967e-08 -5.07691e+08)
(-38509.4 -6067.45 3.00562e-09 44660.1 3.25098e-09 -5.07691e+08)
(-38051.5 -6238.18 -2.26431e-09 44386.1 5.55943e-09 -5.07691e+08)
(-36909.1 -6277 -4.89437e-10 43078.6 -6.19292e-09 -5.07691e+08)
(-35686.8 -6261.35 -6.83755e-09 40988.9 -3.82442e-09 -5.07691e+08)
(-33439.9 -5647.98 0 39438.3 0 -5.07691e+08)
(-9749.06 11977.6 -3.31614e-09 -13228.6 2.68985e-09 -5.07698e+08)
(-30006.1 756.086 0 9385.91 0 -5.07697e+08)
(-38768.3 -5126.46 2.72926e-09 23745.7 -2.33233e-09 -5.07696e+08)
(-42415.3 -8537.8 -5.05467e-09 31693.3 4.31942e-09 -5.07695e+08)
(-43452.6 -10492.9 -2.5037e-09 35846.5 1.82001e-09 -5.07694e+08)
(-42976.9 -11582.6 4.91613e-09 37827.7 1.56174e-09 -5.07693e+08)
(-41816.7 -12167.6 2.08636e-09 38241.3 -1.74424e-09 -5.07693e+08)
(-40187.6 -12321.1 2.05695e-09 37780.1 -7.74042e-09 -5.07693e+08)
(-38325.9 -11991 0 36758.6 0 -5.07693e+08)
(-35760.8 -10814.2 0 36864.4 0 -5.07692e+08)
(-28497.9 21986.4 0 -18877.6 0 -5.07703e+08)
(-42218.4 3859.14 0 1655.84 0 -5.07702e+08)
(-46986.6 -5839.44 3.06046e-09 15083.8 -1.87657e-09 -5.077e+08)
(-48070 -11414.2 2.12869e-09 22706.2 3.18506e-09 -5.07698e+08)
(-47231 -14497.2 3.26656e-11 27208.1 4.88789e-11 -5.07697e+08)
(-45497.9 -16125.6 -4.80235e-09 29747.8 -1.9785e-09 -5.07696e+08)
(-43375 -16832.1 -3.89288e-10 30956.8 -5.47492e-09 -5.07695e+08)
(-41013.8 -16830.9 -2.19623e-09 31363.6 1.32648e-09 -5.07695e+08)
(-38466.4 -16220.5 2.79486e-09 31286.8 4.18239e-09 -5.07694e+08)
(-35416.1 -14973.4 7.09119e-10 32157.9 2.63704e-09 -5.07693e+08)
(-49069.5 29577.4 -1.65611e-09 -20862.3 1.41152e-09 -5.07708e+08)
(-54386.9 6282.75 -1.60201e-09 -4564.8 -2.85936e-09 -5.07706e+08)
(-54391.3 -6368.53 -1.64689e-09 6313.64 7.30018e-10 -5.07703e+08)
(-52272.7 -13404.3 1.78217e-09 13220.6 3.18156e-09 -5.07701e+08)
(-49354.9 -17242.5 4.64615e-09 17707.8 1.96586e-09 -5.077e+08)
(-46177.1 -19156.2 -2.55877e-09 20694.3 1.35277e-09 -5.07698e+08)
(-43023.4 -19888.7 -2.33352e-09 22518.7 1.39631e-09 -5.07697e+08)
(-39852.2 -19772.8 -5.60625e-09 23626.6 3.1029e-09 -5.07696e+08)
(-36586.6 -19040.3 -3.53896e-09 24326.9 -3.8378e-09 -5.07695e+08)
(-33030.4 -17891.8 2.67245e-09 25686.5 1.61994e-09 -5.07694e+08)
(-70454.1 33789 -2.1476e-09 -20319.1 4.4086e-10 -5.07713e+08)
(-66017.2 7821.69 3.85475e-11 -9781.37 8.35798e-11 -5.0771e+08)
(-60477.4 -6332.99 -4.83594e-09 -1807.72 2.36213e-09 -5.07707e+08)
(-55070.5 -14188.1 -7.63508e-10 3767.49 -1.6558e-09 -5.07704e+08)
(-50000.4 -18381 1.71995e-09 7965.69 3.73019e-09 -5.07702e+08)
(-45401.5 -20431.4 4.43367e-09 11110.8 2.70552e-09 -5.077e+08)
(-41205 -21153.3 1.06524e-09 13413.4 2.31041e-09 -5.07699e+08)
(-37241.5 -20992.2 1.3394e-09 15120.9 -3.21634e-09 -5.07697e+08)
(-33373.5 -20274.4 -6.46206e-09 16403.6 -1.11205e-08 -5.07696e+08)
(-29423 -19279.9 -1.81486e-09 18108.8 6.81632e-10 -5.07695e+08)
(-90740.9 34379.9 -4.05238e-09 -17579.2 1.35054e-09 -5.07717e+08)
(-76451.4 8396.8 3.18689e-11 -13465.6 8.63476e-11 -5.07713e+08)
(-65452.8 -5830.57 -3.18776e-11 -9164.38 -8.63817e-11 -5.0771e+08)
(-56702.7 -13629 -6.31218e-10 -5055.55 -1.7106e-09 -5.07707e+08)
(-49581.1 -17790.1 -2.94355e-09 -1400.23 9.56972e-10 -5.07704e+08)
(-43624.6 -19803.2 -7.87071e-11 1773.37 -2.13316e-10 -5.07702e+08)
(-38496.5 -20514 2.5131e-09 4369.26 -1.04142e-09 -5.077e+08)
(-33865.7 -20385.9 6.84833e-09 6501.13 5.0429e-11 -5.07699e+08)
(-29499.4 -19750.7 1.12186e-09 8287.63 -4.61546e-10 -5.07697e+08)
(-25250.5 -18933.8 -3.04521e-09 10262.3 -1.60823e-09 -5.07696e+08)
(-108183 31092.5 1.66347e-09 -13846.4 -1.96287e-09 -5.0772e+08)
(-84877.2 8044.7 -8.15035e-10 -15972.1 -2.88868e-09 -5.07716e+08)
(-69024.1 -4726.81 1.72024e-09 -15055.5 -5.07884e-10 -5.07712e+08)
(-57424.8 -11765.7 5.45045e-10 -12611.4 1.93215e-09 -5.07708e+08)
(-48516.2 -15515.1 4.14067e-09 -9617.78 3.28696e-09 -5.07706e+08)
(-41412.7 -17348.2 -3.94409e-09 -6614.85 -3.32452e-09 -5.07703e+08)
(-35492.9 -18011.1 -2.48067e-09 -3855.42 -8.79472e-09 -5.07701e+08)
(-30317.4 -17942.7 -2.49865e-09 -1395.24 5.82654e-10 -5.077e+08)
(-25591.3 -17452.5 1.33969e-09 752.202 4.74968e-09 -5.07698e+08)
(-21134.1 -16838 -7.75489e-10 2924.04 3.00334e-09 -5.07697e+08)
(-121450 24646.7 6.26292e-09 -10001.3 -1.33632e-09 -5.07723e+08)
(-91052.4 6818.68 -3.8533e-09 -17282.8 6.10718e-10 -5.07717e+08)
(-71328.5 -3213.19 -2.75048e-11 -19326.5 -1.38236e-10 -5.07713e+08)
(-57510.9 -8797.58 -7.47533e-10 -18408.3 -3.75727e-09 -5.0771e+08)
(-47227.8 -11802.3 6.85662e-09 -16127.2 2.76366e-09 -5.07707e+08)
(-39227.1 -13282 7.83545e-10 -13360.3 3.93859e-09 -5.07704e+08)
(-32714.3 -13850.6 3.59633e-11 -10556.1 1.80778e-10 -5.07702e+08)
(-27145.8 -13845.1 -2.009e-09 -7906.42 3.0372e-09 -5.077e+08)
(-22161.6 -13521.7 -4.72142e-10 -5474.7 -2.37336e-09 -5.07699e+08)
(-17565.1 -13116.6 -2.29285e-10 -3149.66 -2.66113e-09 -5.07697e+08)
(-129560 15831.7 4.37061e-09 -6717.49 6.06342e-10 -5.07724e+08)
(-94787.9 5069.93 -3.68225e-09 -17474.8 2.05521e-09 -5.07718e+08)
(-72642.2 -1278.52 -3.9048e-10 -21861.4 -3.29817e-09 -5.07714e+08)
(-57315.4 -4910.89 -6.64732e-10 -22173.2 -5.61505e-09 -5.07711e+08)
(-46108.1 -6884.3 5.04541e-10 -20551.7 4.26211e-09 -5.07708e+08)
(-37508.4 -7883.91 3.35878e-09 -18048.8 3.76058e-09 -5.07705e+08)
(-30594.6 -8281.24 -5.26252e-10 -15261.8 -4.44574e-09 -5.07703e+08)
(-24770.8 -8326.93 5.09039e-09 -12476.8 -6.02745e-10 -5.07701e+08)
(-19632 -8164.61 1.19825e-09 -9855.03 -1.89843e-10 -5.07699e+08)
(-14968.7 -7974.83 1.58304e-09 -7435.88 8.10054e-09 -5.07697e+08)
(-132151 5636.51 4.39581e-09 -4776.3 1.88506e-09 -5.07724e+08)
(-96668.6 3179.77 1.14269e-10 -17295.4 2.90719e-09 -5.07719e+08)
(-72949.8 1261.55 1.65699e-09 -22799 -3.50834e-09 -5.07714e+08)
(-56636.5 43.8567 -1.50435e-10 -23832.3 -3.82796e-09 -5.07711e+08)
(-44834.4 -656.047 7.23499e-12 -22550.2 1.84111e-10 -5.07708e+08)
(-35891.6 -1050.18 3.05164e-09 -20197.2 3.9696e-09 -5.07705e+08)
(-28751.3 -1240.17 -1.83017e-10 -17409.7 -4.65751e-09 -5.07703e+08)
(-22802.4 -1321.97 2.56428e-09 -14571.4 -1.7068e-11 -5.07701e+08)
(-17596.9 -1326.59 1.97509e-10 -11846.8 5.02638e-09 -5.07699e+08)
(-12926.2 -1328.86 4.96768e-11 -9285.81 2.76552e-09 -5.07697e+08)
(9569.38 -6577.06 1.35699e-09 158545 4.36399e-09 -5.07654e+08)
(22714.8 -3901.4 2.99905e-09 117128 1.1778e-10 -5.0766e+08)
(28774.9 -1747.12 -1.82457e-09 89972.5 1.72361e-09 -5.07665e+08)
(30341 -386.985 0 71578.8 0 -5.07669e+08)
(29469.7 393.998 -4.10459e-09 58484.6 -1.6124e-10 -5.07672e+08)
(27448.2 833.492 -4.30191e-11 48708.3 2.89426e-09 -5.07675e+08)
(24956.6 1056.91 4.47348e-09 41057.6 1.75742e-10 -5.07677e+08)
(22345.1 1153.52 2.26588e-09 34754.7 2.65415e-09 -5.07679e+08)
(19808.4 1176.38 2.60844e-09 29347.8 -1.11079e-09 -5.07681e+08)
(17400.4 1182.28 2.70896e-10 24541.9 -3.44256e-09 -5.07683e+08)
(11546.5 -18817 8.1496e-11 154018 4.31e-09 -5.07654e+08)
(22264 -7172.9 1.84109e-09 114172 -1.74555e-09 -5.07661e+08)
(27361.5 -173.179 -1.90556e-09 89334 1.58093e-09 -5.07665e+08)
(28295.1 3712.34 -1.81076e-09 72266.8 -2.14267e-10 -5.07669e+08)
(27205.7 5853.5 0 59884.6 0 -5.07672e+08)
(25140.8 6966.54 -2.27059e-10 50491.1 2.88705e-09 -5.07675e+08)
(22696.1 7444.84 4.62895e-09 43030.3 5.47805e-10 -5.07677e+08)
(20185 7543.61 1.69393e-11 36834.3 2.0041e-12 -5.07679e+08)
(17757.8 7421.31 -1.02688e-08 31451.9 -1.21526e-09 -5.07681e+08)
(15442 7247.16 1.60935e-10 26623.1 -1.49516e-09 -5.07683e+08)
(15116.8 -29336.4 -4.45501e-10 143075 2.08855e-09 -5.07656e+08)
(21388.4 -10819.5 1.91232e-09 108767 -1.60771e-09 -5.07662e+08)
(24127.9 155.547 3.28587e-10 87177.2 -1.76366e-09 -5.07667e+08)
(24060.6 6266.28 -1.78837e-09 72090.9 -3.55645e-10 -5.0767e+08)
(22486.9 9598.82 0 60876.5 0 -5.07673e+08)
(20302.9 11334.5 -6.75777e-10 52200.8 2.81599e-09 -5.07676e+08)
(17927.8 12086.1 -9.52282e-10 45176.5 3.96811e-09 -5.07678e+08)
(15586.1 12232 2.82264e-09 39247.6 -2.05196e-09 -5.0768e+08)
(13358.8 12017.3 3.01833e-12 34021.4 6.00073e-13 -5.07681e+08)
(11154.9 11692 -2.96255e-09 29265 1.75619e-09 -5.07683e+08)
(19186.7 -37045.3 7.64179e-10 126536 -4.22143e-09 -5.07659e+08)
(19587 -13998 -1.48868e-09 100646 -4.1966e-10 -5.07665e+08)
(19671.8 -87.506 4.1884e-10 83843 -1.74571e-09 -5.07668e+08)
(18156.1 7623.1 0 71396.4 0 -5.07672e+08)
(16019.8 11895.7 2.9974e-09 61839.1 4.05898e-09 -5.07674e+08)
(13687.3 14142.6 6.37134e-09 54203.3 1.79664e-09 -5.07677e+08)
(11421 15145 -4.26659e-09 47857.4 -1.20316e-09 -5.07679e+08)
(9306.77 15360.8 -6.86281e-09 42367.4 -1.9353e-09 -5.0768e+08)
(7343.32 15092.2 2.83104e-10 37425.5 -1.17977e-09 -5.07682e+08)
(5278.65 14642.2 7.11167e-10 32824.1 -2.18953e-09 -5.07684e+08)
(23583.4 -41223.2 -1.13177e-09 106916 4.13376e-09 -5.07662e+08)
(17264 -16322.8 2.15602e-09 90216.8 2.87308e-09 -5.07668e+08)
(13963.2 -961.872 -6.8669e-10 78913.9 1.6587e-09 -5.07671e+08)
(11071 7819.04 3.5943e-09 69867.5 1.32569e-09 -5.07674e+08)
(8318.73 12715.8 5.51581e-11 62370.5 2.03448e-11 -5.07676e+08)
(5869.49 15337.5 -3.04618e-09 56066.2 -4.20791e-09 -5.07678e+08)
(3753.11 16547.7 2.19744e-10 50606 -1.36767e-09 -5.0768e+08)
(1919.7 16846.6 0 45727.8 0 -5.07681e+08)
(288.176 16562.6 -5.35663e-09 41212.1 -6.83786e-10 -5.07683e+08)
(-1607.91 16004.9 2.81097e-10 36853 -1.02251e-09 -5.07684e+08)
(26726.4 -41308.3 -3.45362e-09 84077.3 5.46194e-09 -5.07667e+08)
(14414.3 -17572.4 -2.67035e-09 77413.2 -1.2305e-09 -5.07671e+08)
(7916.73 -1989.66 -2.30062e-09 72449.7 9.14895e-10 -5.07674e+08)
(3358.72 6975.97 -1.65596e-09 67150.9 -7.63227e-10 -5.07676e+08)
(4.98277 12102.9 1.18406e-09 62046.8 -2.86012e-09 -5.07678e+08)
(-2540.51 14907.8 2.66759e-09 57299.3 4.41589e-09 -5.0768e+08)
(-4443.85 16270.5 2.65932e-11 52913.7 1.22578e-11 -5.07681e+08)
(-5930.54 16664.6 -3.23897e-09 48811.9 1.32931e-09 -5.07682e+08)
(-7172.26 16398.1 2.79492e-12 44864.9 1.2882e-12 -5.07684e+08)
(-8856.48 15741.9 -1.12133e-09 40850.3 2.57288e-09 -5.07685e+08)
(28643.5 -37786.6 -9.58452e-10 62227.3 -5.3621e-10 -5.07671e+08)
(11037 -16873.7 -5.33563e-11 63903.3 -2.98676e-11 -5.07675e+08)
(1668.28 -2924.35 -8.03422e-11 64647.2 -4.49794e-11 -5.07677e+08)
(-4393.75 5413.78 -3.32743e-09 63247.8 1.9443e-09 -5.07679e+08)
(-8333.99 10248.7 3.58412e-09 60621.8 2.00684e-09 -5.0768e+08)
(-10905.9 12992.9 -1.47499e-09 57518.7 2.4905e-09 -5.07682e+08)
(-12540.4 14408.8 2.81643e-09 54290.3 -4.65401e-09 -5.07683e+08)
(-13613.1 14897.2 1.48833e-11 51063.7 8.33394e-12 -5.07684e+08)
(-14378.1 14691.4 -1.56348e-09 47825.2 -2.26496e-09 -5.07685e+08)
(-15792.3 13934.9 -8.72461e-10 44238 1.70101e-09 -5.07686e+08)
(28384.3 -31414.7 2.85107e-09 41874.5 -5.7976e-09 -5.07676e+08)
(6763.64 -14823.2 -2.44505e-09 50300.5 -1.63301e-09 -5.07679e+08)
(-4933.76 -3425.77 1.47776e-09 56588.1 9.87094e-10 -5.0768e+08)
(-12026.1 3392.65 -1.45231e-09 58556.2 -9.70173e-10 -5.07682e+08)
(-16335.8 7402.62 1.53212e-10 58134.7 1.02354e-10 -5.07683e+08)
(-18812.1 9762.23 -2.09732e-09 56494.1 -4.88117e-09 -5.07684e+08)
(-20049.1 11096.8 -3.74688e-09 54342.9 -2.50328e-09 -5.07684e+08)
(-20580 11683.1 3.78514e-09 51981.4 2.52889e-09 -5.07685e+08)
(-20757.3 11594 2.16801e-09 49442.7 1.44848e-09 -5.07686e+08)
(-21798 10762.8 2.88281e-09 46285.2 5.428e-10 -5.07687e+08)
(24436.5 -22080.8 4.63293e-09 23250.5 -4.5045e-09 -5.07681e+08)
(482.634 -11406.3 4.86326e-09 38297.3 1.35012e-09 -5.07683e+08)
(-12342.4 -3658.25 -7.23178e-11 48576.7 -5.69926e-11 -5.07684e+08)
(-19836.2 921.174 5.21377e-10 53176.5 -3.81879e-09 -5.07685e+08)
(-24051.6 3665.21 2.00973e-09 54486.9 -2.35425e-09 -5.07685e+08)
(-26128.7 5329.97 1.70161e-09 54053.9 -2.3432e-09 -5.07686e+08)
(-26780.3 6408.41 3.82844e-09 52766.8 3.01773e-09 -5.07686e+08)
(-26615 7020.25 -2.48481e-09 51048.6 2.9368e-09 -5.07687e+08)
(-26019.1 7185.48 -2.37505e-09 48999.1 -4.95949e-09 -5.07687e+08)
(-26258.5 6580.1 6.76402e-10 46381.2 -9.31351e-10 -5.07688e+08)
(17280.8 -11405.6 8.68321e-11 8002.19 8.01285e-11 -5.07686e+08)
(-7551.84 -7436.66 1.20362e-09 27448.4 1.11213e-09 -5.07688e+08)
(-20363.4 -4088.08 -1.33659e-09 40700.2 1.20718e-09 -5.07688e+08)
(-27565.3 -2114.19 5.4771e-10 47087.1 -8.54042e-09 -5.07688e+08)
(-31236.2 -921.185 -4.31732e-11 49706.4 -3.99017e-11 -5.07688e+08)
(-32708.4 -156.573 -2.1825e-09 50145.4 1.92304e-09 -5.07688e+08)
(-32695.8 393.291 3.1898e-09 49459.3 6.64987e-09 -5.07688e+08)
(-31867.8 790.932 -1.17118e-09 47943.8 6.62601e-10 -5.07689e+08)
(-30232.1 1297.76 -5.54558e-09 46459.1 -5.12582e-09 -5.07689e+08)
(-28979 1609.89 6.47476e-09 44016.5 4.47878e-09 -5.07689e+08)
(15268.2 1091.24 5.58735e-09 20202.4 -1.14904e-09 -5.07684e+08)
(13405.7 935.975 1.84821e-10 16086.5 -2.26728e-09 -5.07686e+08)
(11824.4 827.319 -8.10711e-09 12289.4 -1.10781e-09 -5.07687e+08)
(10447.5 724.844 -2.71813e-09 8715.39 1.05242e-11 -5.07688e+08)
(9265.94 620.359 -2.15355e-10 5276.31 3.45422e-09 -5.07689e+08)
(8266.9 514.894 0 1877.5 0 -5.0769e+08)
(7443.97 410.702 0 -1532.34 0 -5.07691e+08)
(6787.3 309.565 2.65377e-09 -5011.95 -1.02753e-11 -5.07692e+08)
(6282.13 211.364 6.46748e-11 -8584.38 -1.17561e-09 -5.07693e+08)
(5923.88 116.65 5.24336e-09 -12291.1 -2.03037e-11 -5.07694e+08)
(5696.24 22.634 1.67854e-10 -16142 -3.56357e-09 -5.07695e+08)
(5605.77 -68.5164 -6.98167e-11 -20173.3 1.19409e-09 -5.07696e+08)
(5641.62 -162.864 1.40541e-10 -24386.7 -3.60065e-09 -5.07697e+08)
(5829.95 -262.38 -7.74181e-09 -28827.6 2.9985e-11 -5.07698e+08)
(6175.87 -371.48 2.52956e-09 -33507.3 1.20273e-09 -5.07699e+08)
(6701.17 -485.759 9.1427e-12 -38482.7 -3.54164e-14 -5.077e+08)
(7391.12 -617.581 -2.53956e-09 -43779.1 9.83851e-12 -5.07701e+08)
(8115.99 -725.251 2.51678e-09 -49503 -9.75095e-12 -5.07702e+08)
(8887.6 -704.232 -4.9732e-09 -55494 -3.6941e-09 -5.07703e+08)
(9435.93 -330.421 -2.50793e-09 -61396.8 2.53009e-09 -5.07704e+08)
(13469.4 6720.22 8.38328e-09 22067.5 -8.53531e-10 -5.07684e+08)
(11870.5 5980.91 1.75646e-10 17691.8 -2.25722e-09 -5.07685e+08)
(10594.8 5427.1 -2.63462e-09 13724.8 -1.10411e-09 -5.07687e+08)
(9461.27 4916.16 8.37383e-09 10013.7 -2.39557e-09 -5.07688e+08)
(8473.08 4426.64 1.05597e-10 6442.39 1.12357e-09 -5.07689e+08)
(7634.42 3960.78 -8.15023e-09 2936.54 1.25663e-09 -5.0769e+08)
(6939.51 3522.99 2.58112e-10 -576.965 -2.34581e-09 -5.07691e+08)
(6388.95 3114.37 0 -4132.52 0 -5.07692e+08)
(5967.87 2731.99 5.53207e-11 -7780.22 -1.17305e-09 -5.07693e+08)
(5678.84 2373 2.06991e-10 -11534.4 -2.38626e-09 -5.07694e+08)
(5504.77 2030.3 2.92131e-09 -15436.4 -5.98707e-09 -5.07695e+08)
(5458.28 1698.9 5.26314e-11 -19491.3 -1.36967e-11 -5.07696e+08)
(5528.95 1365.38 -2.53771e-09 -23741.2 -2.35604e-09 -5.07697e+08)
(5739.69 1031.86 2.55182e-09 -28191.3 -2.88571e-11 -5.07697e+08)
(6099.84 673.003 2.57642e-09 -32893 -4.15208e-11 -5.07698e+08)
(6634.8 290.744 -2.52543e-09 -37861.5 2.85632e-11 -5.077e+08)
(7310.76 -120.99 -2.52126e-09 -43171.9 2.85188e-11 -5.07701e+08)
(8009.65 -517.865 -4.99886e-09 -48899.2 5.65489e-11 -5.07702e+08)
(8735.86 -838.522 -4.16445e-11 -55092.5 2.90119e-11 -5.07703e+08)
(9303.22 -888.044 1.65579e-09 -61907.4 3.65479e-09 -5.07704e+08)
(9418.43 10843.7 2.6971e-09 24516.5 -4.80925e-11 -5.07684e+08)
(8315.59 9743.38 2.67333e-10 19856.3 -1.14389e-09 -5.07686e+08)
(7669.82 8931.94 -8.01066e-09 15723 1.42813e-10 -5.07687e+08)
(7058.48 8163.23 2.23239e-09 11844.2 1.1513e-09 -5.07688e+08)
(6505 7410.43 8.23131e-09 8108.54 -2.44366e-09 -5.07689e+08)
(6026.32 6683.2 -8.00158e-09 4449.09 1.29887e-09 -5.0769e+08)
(5628.35 5992.09 -2.77756e-09 799.954 8.93088e-11 -5.07691e+08)
(5320.57 5341.22 5.20774e-09 -2872.57 -9.28363e-11 -5.07692e+08)
(5098.42 4728.5 -4.81571e-09 -6616.65 -2.31527e-09 -5.07693e+08)
(4969.95 4149.09 -5.26172e-09 -10449.1 1.37006e-10 -5.07694e+08)
(4927.41 3593.63 5.00399e-09 -14411.3 -4.55849e-11 -5.07694e+08)
(4984.15 3054.63 7.59123e-09 -18513.1 -1.13512e-10 -5.07695e+08)
(5139.32 2516.84 4.96925e-11 -22796.4 -2.25428e-11 -5.07696e+08)
(5420.13 1964.18 -2.52267e-09 -27271.9 4.49839e-11 -5.07697e+08)
(5834.41 1383.16 2.4712e-09 -31991.1 -2.34186e-11 -5.07698e+08)
(6404.15 764.972 8.6514e-12 -36976.2 -1.54307e-13 -5.07699e+08)
(7118.01 88.3988 -2.48552e-09 -42309.4 4.43335e-11 -5.077e+08)
(7863.41 -599.695 2.42514e-09 -48078.7 1.21976e-09 -5.07702e+08)
(8639.49 -1220.14 2.36497e-09 -54341.9 6.25225e-09 -5.07703e+08)
(9286.27 -1498.86 9.18644e-13 -61156.4 -1.4029e-11 -5.07704e+08)
(3815 13571.1 0 27852.2 0 -5.07685e+08)
(3355.02 12324.2 2.51889e-10 22873.7 -1.12824e-09 -5.07686e+08)
(3543.14 11453 2.6125e-09 18566.2 -5.9822e-11 -5.07687e+08)
(3641.4 10592.1 2.8711e-09 14489.8 -1.34871e-10 -5.07688e+08)
(3689.69 9715.29 0 10544.7 0 -5.07689e+08)
(3716.49 8842.39 -2.27913e-09 6680.14 -1.13708e-09 -5.0769e+08)
(3739.19 7992.9 -2.95314e-09 2844.29 2.41319e-09 -5.07691e+08)
(3778.19 7177.36 -5.07076e-09 -993.158 1.16097e-10 -5.07692e+08)
(3841.5 6397.53 -3.85598e-10 -4875.13 1.28942e-09 -5.07693e+08)
(3946.04 5649.86 4.72307e-09 -8822.49 2.29425e-09 -5.07693e+08)
(4094.12 4926.09 2.20686e-09 -12874.9 2.37002e-09 -5.07694e+08)
(4307.31 4213.69 4.15366e-10 -17049 -2.53956e-09 -5.07695e+08)
(4592.99 3496.53 -2.04573e-09 -21387.2 -3.69716e-09 -5.07696e+08)
(4976.29 2760.06 2.31931e-09 -25908.9 1.21284e-09 -5.07697e+08)
(5480.94 1977.99 2.36887e-09 -30664.3 1.18998e-09 -5.07698e+08)
(6135.22 1129.32 -2.43638e-09 -35686.2 5.58088e-11 -5.07699e+08)
(6921.5 201.508 -7.63422e-12 -41055.6 1.74898e-13 -5.077e+08)
(7743.41 -763.663 7.21668e-09 -46858.8 1.10143e-09 -5.07701e+08)
(8589.4 -1670.75 -2.34432e-09 -53129 -1.28597e-09 -5.07703e+08)
(9288.11 -2108.8 -2.41635e-09 -59863.1 2.89554e-09 -5.07704e+08)
(-2811.13 14803.2 4.94996e-09 31665.8 2.01229e-09 -5.07686e+08)
(-2552.9 13635.3 -4.43289e-10 26436.1 1.15496e-09 -5.07687e+08)
(-1420.7 12914.7 -5.51447e-09 22017.9 1.30351e-09 -5.07688e+08)
(-500.184 12143.2 2.61651e-09 17769.1 -1.15745e-09 -5.07688e+08)
(256.955 11299.9 6.22968e-09 13613.1 -3.73627e-09 -5.07689e+08)
(886.465 10415.3 -2.59357e-09 9524.62 1.00823e-10 -5.0769e+08)
(1415.86 9519.25 0 5475.71 0 -5.07691e+08)
(1876.09 8630.89 2.46212e-09 1442.44 -6.41633e-11 -5.07692e+08)
(2289.03 7759.06 -6.83938e-10 -2608.07 3.64809e-09 -5.07692e+08)
(2681.64 6904.64 -2.7254e-09 -6701.31 1.33141e-09 -5.07693e+08)
(3069.65 6061.65 -4.3336e-09 -10871.9 -2.43118e-09 -5.07694e+08)
(3478.76 5220.02 -4.76784e-09 -15145.8 -1.04043e-09 -5.07695e+08)
(3927.78 4361.55 6.48869e-09 -19561 3.78759e-09 -5.07696e+08)
(4452.72 3461.75 7.05297e-09 -24149.3 1.07949e-09 -5.07697e+08)
(5077.17 2498.24 1.52211e-10 -28959.7 -1.31374e-09 -5.07698e+08)
(5829.87 1445.71 -2.24457e-09 -34035.9 -1.25817e-09 -5.07699e+08)
(6720.31 271.387 1.89092e-10 -39447.6 -2.65001e-09 -5.077e+08)
(7641.33 -965.854 7.59364e-11 -45275.7 -1.32924e-09 -5.07701e+08)
(8557.58 -2132.72 4.75003e-09 -51523.1 -2.70111e-09 -5.07702e+08)
(9298.86 -2702.38 2.34633e-09 -58140.5 9.49791e-10 -5.07704e+08)
(-9855.34 14491.3 2.77872e-09 35514.7 4.98252e-10 -5.07686e+08)
(-8893.2 13619.8 1.12595e-10 30213.1 -3.05004e-11 -5.07687e+08)
(-6814.16 13250.1 -2.88116e-09 25816.3 1.21242e-09 -5.07688e+08)
(-5041.62 12749.5 -8.15282e-09 21476 2.52466e-09 -5.07689e+08)
(-3538.09 12101.1 2.57006e-09 17147.7 -1.16474e-09 -5.07689e+08)
(-2263.8 11346.2 4.96501e-09 12854.4 -1.73813e-10 -5.0769e+08)
(-1187.77 10521.5 -2.40861e-09 8589.3 6.49829e-11 -5.07691e+08)
(-266.181 9658.76 1.97228e-09 4351.55 1.20984e-09 -5.07691e+08)
(533.08 8774.7 3.50439e-09 110.866 -3.93439e-09 -5.07692e+08)
(1250.07 7879.84 -6.97366e-09 -4147.74 1.40872e-10 -5.07693e+08)
(1908.77 6972.91 -2.50193e-09 -8464.05 1.63619e-10 -5.07694e+08)
(2546.93 6046.02 1.11888e-08 -12858 2.24863e-09 -5.07695e+08)
(3188.27 5081.27 1.32611e-09 -17377.5 6.4014e-09 -5.07696e+08)
(3870.54 4056.91 -6.93561e-09 -22049.2 1.87179e-10 -5.07697e+08)
(4630.28 2937.87 -2.15392e-09 -26931.4 -1.25085e-09 -5.07697e+08)
(5508.96 1689.52 -4.92332e-09 -32062.9 2.90085e-09 -5.07698e+08)
(6496.45 285.604 -5.62605e-11 -37524.9 8.39171e-11 -5.07699e+08)
(7512.87 -1210.14 6.92642e-09 -43364.4 -1.52065e-09 -5.07701e+08)
(8505.89 -2619.2 2.24029e-09 -49590.2 1.2791e-09 -5.07702e+08)
(9309.07 -3279.81 9.37385e-12 -56017.6 -2.69016e-09 -5.07703e+08)
(-16692.1 12685.8 -2.73981e-09 38875.6 -5.79182e-10 -5.07687e+08)
(-15131.6 12292.3 2.27451e-09 33803.4 -2.72709e-11 -5.07688e+08)
(-12219.5 12438.4 6.56857e-10 29615.4 -1.18756e-09 -5.07688e+08)
(-9658.91 12369.4 -2.37763e-09 25318.6 6.04713e-11 -5.07689e+08)
(-7451.02 12065.6 -9.39691e-10 20896.6 2.38629e-09 -5.07689e+08)
(-5552.02 11573 4.47055e-10 16462.3 -1.21429e-09 -5.0769e+08)
(-3940.83 10931.7 3.34123e-09 12004.6 -2.63136e-09 -5.0769e+08)
(-2552.21 10189.1 -5.92116e-09 7585.89 3.98694e-09 -5.07691e+08)
(-1359.15 9369.92 -3.48804e-09 3148.04 2.88666e-09 -5.07692e+08)
(-298.116 8499.6 5.72189e-09 -1272.66 -4.10234e-09 -5.07693e+08)
(648.93 7581.39 -6.28462e-10 -5755.84 2.61357e-09 -5.07693e+08)
(1539.9 6617.51 6.69008e-09 -10273.6 -1.70129e-10 -5.07694e+08)
(2389.47 5588.99 2.8709e-09 -14920.2 -2.84592e-09 -5.07695e+08)
(3261.37 4470.91 -6.39099e-09 -19672.9 -1.23607e-09 -5.07696e+08)
(4165.04 3227.52 3.72435e-09 -24642.7 4.13092e-09 -5.07697e+08)
(5155.78 1818.03 1.13079e-10 -29808.5 -1.58993e-10 -5.07698e+08)
(6222.64 196.946 -6.86216e-09 -35296.6 2.91972e-09 -5.07699e+08)
(7319.75 -1552.06 2.20198e-09 -41097.1 -5.60475e-11 -5.077e+08)
(8333.69 -3181.24 2.2656e-09 -47302.9 -1.48215e-09 -5.07701e+08)
(9271.57 -3842.43 6.77821e-12 -53468.3 -1.42331e-09 -5.07703e+08)
(-22674.9 9572.33 1.41682e-10 41223.4 -3.09512e-11 -5.07688e+08)
(-20714.2 9789.59 -2.16788e-09 36740.5 1.31688e-11 -5.07689e+08)
(-17166.1 10594.7 -1.6976e-09 33120 -1.10105e-09 -5.07689e+08)
(-14013.5 11075.5 0 28969.9 0 -5.07689e+08)
(-11205.6 11258.3 0 24687.2 0 -5.07689e+08)
(-8803.13 11129.6 -5.08396e-09 20125.6 1.38243e-09 -5.0769e+08)
(-6692.18 10784.3 6.31427e-09 15630.2 -2.23106e-11 -5.0769e+08)
(-4899.02 10237.5 1.17838e-08 10982.2 -1.70385e-09 -5.07691e+08)
(-3301.78 9565.84 -1.03255e-08 6456.88 -9.26261e-11 -5.07692e+08)
(-1926.83 8774.52 -7.2122e-09 1789.59 1.66917e-09 -5.07692e+08)
(-657.421 7905.36 4.30426e-09 -2768.33 -9.1618e-11 -5.07693e+08)
(472.696 6944.53 1.71182e-09 -7515.09 1.39247e-09 -5.07694e+08)
(1580.41 5896.09 9.94718e-10 -12199.1 -4.22614e-09 -5.07695e+08)
(2618.1 4725.59 5.13415e-09 -17150.4 -4.42476e-09 -5.07696e+08)
(3710.28 3398.64 1.51039e-10 -22093.3 -1.93789e-10 -5.07697e+08)
(4783.94 1865.78 -5.33965e-09 -27391.8 -7.10083e-09 -5.07698e+08)
(5946.1 76.8699 0 -32731.7 0 -5.07698e+08)
(7004.84 -1902.65 -2.44965e-10 -38564.6 2.97504e-09 -5.077e+08)
(8084.54 -3722.02 6.24587e-11 -44378.4 -1.43806e-09 -5.07701e+08)
(9143.89 -4347.36 2.26811e-11 -50910.9 -4.39547e-09 -5.07702e+08)
(-27028.6 5552.32 -1.57556e-10 42145.5 3.11294e-11 -5.07689e+08)
(-24775.5 6588.04 7.40807e-10 39109.6 -1.11192e-09 -5.07689e+08)
(-21016.7 8074.06 -8.69733e-10 36156.1 1.19097e-09 -5.07689e+08)
(-17553.2 9202.42 -8.41046e-10 32578.1 1.23258e-09 -5.07689e+08)
(-14455.7 9915.63 3.74745e-09 28407 -2.57764e-09 -5.07689e+08)
(-11695.4 10258.6 1.70787e-09 24020.3 -2.68572e-09 -5.07689e+08)
(-9262.83 10270.2 -3.32882e-09 19367.4 2.60327e-09 -5.0769e+08)
(-7105.98 10020.5 -3.10938e-09 14711.6 -2.50662e-09 -5.07691e+08)
(-5207.57 9554.72 1.46488e-09 9916.88 3.33113e-10 -5.07691e+08)
(-3502.68 8924.05 3.24131e-09 5188.6 2.61515e-09 -5.07692e+08)
(-1980.38 8150.69 -1.65407e-09 331.435 4.43384e-09 -5.07693e+08)
(-566.738 7254.53 9.32049e-11 -4467.08 -7.8203e-11 -5.07693e+08)
(736.909 6225.43 -5.69163e-09 -9444.27 -1.3556e-09 -5.07694e+08)
(2011.91 5048.42 -1.33923e-10 -14399.1 1.52817e-10 -5.07695e+08)
(3230.63 3685.88 5.06269e-10 -19603.4 -2.87614e-09 -5.07696e+08)
(4463.88 2097.84 -8.21854e-11 -24805.8 1.39832e-10 -5.07697e+08)
(5625.16 204.51 7.87289e-09 -30291.6 1.44043e-09 -5.07698e+08)
(6747.41 -1883.12 -1.08391e-10 -35656 1.43814e-09 -5.07699e+08)
(7953.74 -3971.11 -8.21426e-09 -41601.1 1.66839e-09 -5.077e+08)
(9149.71 -4915.31 -1.36607e-09 -48459.6 1.75774e-09 -5.07701e+08)
(-29630.4 1072.61 2.62735e-11 40358.4 3.94843e-10 -5.0769e+08)
(-27109.7 3118.7 -6.46375e-10 39140.9 1.51553e-09 -5.0769e+08)
(-23599.8 5191.33 1.86294e-09 37226.1 -4.1012e-10 -5.07689e+08)
(-20202.5 6894.14 -6.40689e-09 34412.8 -3.4641e-10 -5.07689e+08)
(-17032.3 8173.66 -5.6547e-09 30811.1 7.47913e-10 -5.07689e+08)
(-14085.5 9038.12 4.76667e-09 26745.3 9.89027e-10 -5.07689e+08)
(-11421.3 9509.16 5.52727e-09 22268 1.59759e-09 -5.0769e+08)
(-8993.56 9639.75 5.65802e-09 17629.4 -3.25935e-10 -5.0769e+08)
(-6835.66 9481.97 -3.86333e-09 12789 1.96425e-09 -5.07691e+08)
(-4868.61 9081.78 1.61301e-10 7930.8 2.57101e-10 -5.07692e+08)
(-3115.64 8483.57 -5.66616e-10 2938.3 -7.19794e-10 -5.07692e+08)
(-1478.69 7698.32 -5.59043e-09 -2034.89 2.55075e-10 -5.07693e+08)
(13.4276 6746.76 0 -7157.68 0 -5.07694e+08)
(1467.73 5596 9.24479e-10 -12271.1 4.77907e-09 -5.07695e+08)
(2831.7 4245.05 -1.2116e-10 -17575.3 -1.94201e-10 -5.07696e+08)
(4181.18 2639.15 -6.82437e-10 -22860.2 4.85967e-09 -5.07697e+08)
(5399.37 793.163 1.84171e-09 -28272.9 -1.97775e-10 -5.07698e+08)
(6688.99 -1437.04 2.31768e-10 -33484.4 -3.32182e-09 -5.07698e+08)
(7994.93 -3958.97 -3.18524e-11 -39222.9 -1.92887e-10 -5.077e+08)
(9137.94 -5343.1 -2.15081e-11 -45944.7 2.91844e-09 -5.07701e+08)
(-27492.3 -1063.72 2.46932e-09 39041.1 8.6622e-11 -5.0769e+08)
(-25658.7 1092.65 -6.72117e-10 37285.5 1.68483e-09 -5.0769e+08)
(-23588.7 2949.58 -1.12527e-09 35522 6.80695e-11 -5.0769e+08)
(-21034.4 4664.36 5.99107e-10 33003.1 -1.70108e-09 -5.0769e+08)
(-18281.7 6141.79 6.37614e-10 29932.1 5.1756e-09 -5.0769e+08)
(-15564.4 7277.31 1.87588e-10 26182.2 3.37361e-09 -5.0769e+08)
(-12931.2 8067.07 -2.2482e-09 22129.7 1.71508e-09 -5.0769e+08)
(-10491 8508.28 -1.31234e-09 17666.6 -1.71648e-09 -5.07691e+08)
(-8203.78 8642.55 2.9949e-09 13118 -5.15072e-09 -5.07691e+08)
(-6132.1 8499.09 -3.73576e-10 8310.06 -4.58359e-11 -5.07692e+08)
(-4190.45 8111.96 1.0073e-09 3523.41 -3.3772e-09 -5.07692e+08)
(-2427.06 7502.69 -2.98466e-10 -1477.55 -5.27213e-11 -5.07693e+08)
(-731.822 6673.08 0 -6419.95 0 -5.07694e+08)
(841.004 5621.58 -2.2442e-10 -11585 1.69602e-09 -5.07695e+08)
(2400.29 4324.38 1.88194e-10 -16676.3 -1.6876e-09 -5.07696e+08)
(3837.91 2796.75 -1.52743e-10 -21996.5 -8.35021e-11 -5.07696e+08)
(5251.55 994.87 -1.64393e-09 -27070.7 -1.6666e-09 -5.07697e+08)
(6510.04 -1187.33 8.3427e-11 -32213.9 1.06799e-10 -5.07698e+08)
(8048.96 -3924.14 4.9905e-11 -37316.5 1.20247e-10 -5.07699e+08)
(9282.05 -5797.07 5.7384e-12 -43260.9 1.34755e-10 -5.077e+08)
(-25506.9 -2626.25 1.68448e-09 37665.6 -6.72583e-10 -5.0769e+08)
(-23317.3 -463.547 0 35369.3 0 -5.0769e+08)
(-21523.4 1344.04 -1.76133e-09 33543.9 1.88931e-13 -5.0769e+08)
(-19509.1 2984.3 2.97225e-23 31317 -6.05362e-24 -5.0769e+08)
(-17304 4448.32 -3.11816e-24 28512.2 -1.21248e-23 -5.0769e+08)
(-15009.6 5663.21 1.25244e-23 25163.9 -2.3469e-23 -5.0769e+08)
(-12718.7 6581.32 2.44423e-23 21371 -1.21032e-23 -5.0769e+08)
(-10491.6 7188.63 -1.76137e-09 17247.4 1.67695e-13 -5.07691e+08)
(-8367.2 7494.28 0 12876.4 0 -5.07691e+08)
(-6357.17 7517.83 1.76139e-09 8332.97 -1.67218e-13 -5.07692e+08)
(-4462.65 7279.51 -1.81874e-23 3653.35 -6.84276e-24 -5.07692e+08)
(-2667.07 6793.24 -1.76141e-09 -1124.99 1.72638e-13 -5.07693e+08)
(-954.493 6063.91 1.76141e-09 -5995.51 -1.77626e-13 -5.07694e+08)
(701.6 5081.12 1.2123e-23 -10934.4 -1.21014e-23 -5.07695e+08)
(2310.27 3838.45 -1.76143e-09 -15947.7 1.92661e-13 -5.07695e+08)
(3844.95 2373.36 -1.21005e-23 -21007.3 1.96941e-25 -5.07696e+08)
(5259.28 705.117 1.76145e-09 -26012.8 -2.13781e-13 -5.07697e+08)
(6735.72 -1462.06 1.76145e-09 -30742.9 -2.28407e-13 -5.07698e+08)
(8156.64 -4269.59 -1.21015e-23 -35514.9 -6.45128e-24 -5.07699e+08)
(9306.53 -6154.48 -4.03371e-24 -40458.8 -6.45115e-24 -5.07699e+08)
(-23411.8 -4104.04 1.7615e-09 35572.4 1.76132e-09 -5.0769e+08)
(-21317.6 -1944.86 1.87461e-13 33598.2 1.76152e-09 -5.07689e+08)
(-19557.3 -176.115 -1.76114e-09 31763.9 1.76171e-09 -5.07689e+08)
(-17762.4 1385.69 0 29617.5 0 -5.0769e+08)
(-15854.5 2797.28 1.76155e-09 27035 1.76131e-09 -5.0769e+08)
(-13861.7 4017.87 1.76178e-09 23976.3 3.52279e-09 -5.0769e+08)
(-11828.8 4998.26 -1.76115e-09 20506.9 1.76166e-09 -5.0769e+08)
(-9811.05 5706.37 -1.76093e-09 16690.2 3.52311e-09 -5.07691e+08)
(-7840.89 6132.98 1.76138e-09 12613.6 -1.79875e-13 -5.07691e+08)
(-5943.55 6281.25 4.48673e-13 8326.23 3.52288e-09 -5.07692e+08)
(-4120.25 6159.54 2.25739e-13 3886.9 1.76143e-09 -5.07692e+08)
(-2370.24 5774.19 4.53472e-13 -684.431 3.52282e-09 -5.07693e+08)
(-676.206 5125.61 4.54817e-13 -5351.06 3.5228e-09 -5.07694e+08)
(973.987 4204.44 2.27819e-13 -10107.4 1.76138e-09 -5.07694e+08)
(2591.54 3009.82 4.56024e-13 -14924.7 3.52274e-09 -5.07695e+08)
(4150.72 1598.31 4.56038e-13 -19789.8 3.52271e-09 -5.07696e+08)
(5625.09 5.05792 -1.76145e-09 -24584.2 2.27831e-13 -5.07697e+08)
(6950.92 -2035 2.2756e-13 -29188.8 1.76133e-09 -5.07697e+08)
(8387.11 -4793.3 2.26955e-13 -33499.2 1.76132e-09 -5.07698e+08)
(9502.25 -6508.1 4.50633e-14 -37611.8 1.7613e-09 -5.07699e+08)
(-20876.4 -5618.54 6.80314e-09 32792.7 -2.39831e-09 -5.0769e+08)
(-19104.6 -3463.66 -1.82633e-13 31390.3 -1.76151e-09 -5.07689e+08)
(-17439.6 -1683.79 -3.52249e-09 29765 1.76191e-09 -5.07689e+08)