/*--------------------------------*- C++ -*----------------------------------*\
  =========                 |
  \\      /  F ield         | OpenFOAM: The Open Source CFD Toolbox
   \\    /   O peration     | Website:  https://openfoam.org
    \\  /    A nd           | Version:  dev
     \\/     M anipulation  |
\*---------------------------------------------------------------------------*/
FoamFile
{
    version     2.0;
    format      ascii;
    class       volScalarField;
    location    "60";
    object      sigmaxx;
}
// * * * * * * * * * * * * * * * * * * * * * * * * * * * * * * * * * * * * * //

dimensions      [1 -1 -2 0 0 0 0];

internalField   nonuniform List<scalar> 
1000
(
5693.22
-18009.1
-29206.4
-35172.7
-37799.1
-38509.4
-38051.5
-36909.1
-35686.8
-33439.9
-9749.06
-30006.1
-38768.3
-42415.3
-43452.6
-42976.9
-41816.7
-40187.6
-38325.9
-35760.8
-28497.9
-42218.4
-46986.6
-48070
-47231
-45497.9
-43375
-41013.8
-38466.4
-35416.1
-49069.5
-54386.9
-54391.3
-52272.7
-49354.9
-46177.1
-43023.4
-39852.2
-36586.6
-33030.4
-70454.1
-66017.2
-60477.4
-55070.5
-50000.4
-45401.5
-41205
-37241.5
-33373.5
-29423
-90740.9
-76451.4
-65452.8
-56702.7
-49581.1
-43624.6
-38496.5
-33865.7
-29499.4
-25250.5
-108183
-84877.2
-69024.1
-57424.8
-48516.2
-41412.7
-35492.9
-30317.4
-25591.3
-21134.1
-121450
-91052.4
-71328.5
-57510.9
-47227.8
-39227.1
-32714.3
-27145.8
-22161.6
-17565.1
-129560
-94787.9
-72642.2
-57315.4
-46108.1
-37508.4
-30594.6
-24770.8
-19632
-14968.7
-132151
-96668.6
-72949.8
-56636.5
-44834.4
-35891.6
-28751.3
-22802.4
-17596.9
-12926.2
9569.38
22714.8
28774.9
30341
29469.7
27448.2
24956.6
22345.1
19808.4
17400.4
11546.5
22264
27361.5
28295.1
27205.7
25140.8
22696.1
20185
17757.8
15442
15116.8
21388.4
24127.9
24060.6
22486.9
20302.9
17927.8
15586.1
13358.8
11154.9
19186.7
19587
19671.8
18156.1
16019.8
13687.3
11421
9306.77
7343.32
5278.65
23583.4
17264
13963.2
11071
8318.73
5869.49
3753.11
1919.7
288.176
-1607.91
26726.4
14414.3
7916.73
3358.72
4.98277
-2540.51
-4443.85
-5930.54
-7172.26
-8856.48
28643.5
11037
1668.28
-4393.75
-8333.99
-10905.9
-12540.4
-13613.1
-14378.1
-15792.3
28384.3
6763.64
-4933.76
-12026.1
-16335.8
-18812.1
-20049.1
-20580
-20757.3
-21798
24436.5
482.634
-12342.4
-19836.2
-24051.6
-26128.7
-26780.3
-26615
-26019.1
-26258.5
17280.8
-7551.84
-20363.4
-27565.3
-31236.2
-32708.4
-32695.8
-31867.8
-30232.1
-28979
15268.2
13405.7
11824.4
10447.5
9265.94
8266.9
7443.97
6787.3
6282.13
5923.88
5696.24
5605.77
5641.62
5829.95
6175.87
6701.17
7391.12
8115.99
8887.6
9435.93
13469.4
11870.5
10594.8
9461.27
8473.08
7634.42
6939.51
6388.95
5967.87
5678.84
5504.77
5458.28
5528.95
5739.69
6099.84
6634.8
7310.76
8009.65
8735.86
9303.22
9418.43
8315.59
7669.82
7058.48
6505
6026.32
5628.35
5320.57
5098.42
4969.95
4927.41
4984.15
5139.32
5420.13
5834.41
6404.15
7118.01
7863.41
8639.49
9286.27
3815
3355.02
3543.14
3641.4
3689.69
3716.49
3739.19
3778.19
3841.5
3946.04
4094.12
4307.31
4592.99
4976.29
5480.94
6135.22
6921.5
7743.41
8589.4
9288.11
-2811.13
-2552.9
-1420.7
-500.184
256.955
886.465
1415.86
1876.09
2289.03
2681.64
3069.65
3478.76
3927.78
4452.72
5077.17
5829.87
6720.31
7641.33
8557.58
9298.86
-9855.34
-8893.2
-6814.16
-5041.62
-3538.09
-2263.8
-1187.77
-266.181
533.08
1250.07
1908.77
2546.93
3188.27
3870.54
4630.28
5508.96
6496.45
7512.87
8505.89
9309.07
-16692.1
-15131.6
-12219.5
-9658.91
-7451.02
-5552.02
-3940.83
-2552.21
-1359.15
-298.116
648.93
1539.9
2389.47
3261.37
4165.04
5155.78
6222.64
7319.75
8333.69
9271.57
-22674.9
-20714.2
-17166.1
-14013.5
-11205.6
-8803.13
-6692.18
-4899.02
-3301.78
-1926.83
-657.421
472.696
1580.41
2618.1
3710.28
4783.94
5946.1
7004.84
8084.54
9143.89
-27028.6
-24775.5
-21016.7
-17553.2
-14455.7
-11695.4
-9262.83
-7105.98
-5207.57
-3502.68
-1980.38
-566.738
736.909
2011.91
3230.63
4463.88
5625.16
6747.41
7953.74
9149.71
-29630.4
-27109.7
-23599.8
-20202.5
-17032.3
-14085.5
-11421.3
-8993.56
-6835.66
-4868.61
-3115.64
-1478.69
13.4276
1467.73
2831.7
4181.18
5399.37
6688.99
7994.93
9137.94
-27492.3
-25658.7
-23588.7
-21034.4
-18281.7
-15564.4
-12931.2
-10491
-8203.78
-6132.1
-4190.45
-2427.06
-731.822
841.004
2400.29
3837.91
5251.55
6510.04
8048.96
9282.05
-25506.9
-23317.3
-21523.4
-19509.1
-17304
-15009.6
-12718.7
-10491.6
-8367.2
-6357.17
-4462.65
-2667.07
-954.493
701.6
2310.27
3844.95
5259.28
6735.72
8156.64
9306.53
-23411.8
-21317.6
-19557.3
-17762.4
-15854.5
-13861.7
-11828.8
-9811.05
-7840.89
-5943.55
-4120.25
-2370.24
-676.206
973.987
2591.54
4150.72
5625.09
6950.92
8387.11
9502.25
-20876.4
-19104.6
-17439.6
-15783.8
-14082.8
-12324.2
-10526.9
-8719.69
-6932.1
-5181.7
-3478.25
-1818.82
-196.65
1402.86
2983.08
4513.18
5933.79
7360.81
8592.75
9506.45
-17836.3
-16375.1
-14950.4
-13484.9
-11981.3
-10436.9
-8860.08
-7267.44
-5677.78
-4105.45
-2557.88
-1034.71
470.62
1967.75
3457.93
4921.71
6320.64
7533.69
8759.83
9649.67
-14286.2
-13213.5
-12052.5
-10818.9
-9535.68
-8213.34
-6861.33
-5491.11
-4115.63
-2745.14
-1385.38
-35.6249
1308.92
2657.01
4011.32
5341.87
6591.16
7848.12
8870.53
9582.11
-10372.5
-9594.82
-8742.64
-7782.06
-6749.63
-5669.63
-4556.05
-3420.99
-2274.99
-1126.4
20.4156
1165.34
2312.52
3469.1
4636.27
5802.42
6940.61
7917.16
8938.59
9674.97
-6134.71
-5661.76
-5100.7
-4418.05
-3652.93
-2831.34
-1970.54
-1083.4
-180.115
731.666
1646.95
2563.77
3483.93
4413.05
5356.24
6296.21
7195.69
8166.62
8975.62
9559.56
-1697.7
-1451.3
-1184.37
-778.97
-286.499
267.954
866.226
1496.15
2147.88
2813.63
3486.43
4161.13
4835.07
5509.3
6187.83
6876.49
7580.56
8197.91
8995.72
9629.44
2911.71
2904.36
2929.18
3076.43
3303.5
3590.04
3922.44
4290.98
4687.61
5104.33
5532.74
5962.87
6384.41
6790.93
7184.51
7562.27
7926.93
8465.38
8998.69
9478.05
7618.31
7426.89
7212.75
7107.44
7075
7097.21
7165.42
7273.58
7416.07
7586.97
7776.79
7972.21
8152.99
8298.73
8394.28
8447.61
8507.98
8558.09
9018.89
9533.44
12451
12047.1
11614.2
11270.3
10987.1
10752.4
10562.6
10414.7
10307.8
10238.5
10201.3
10181.5
10153
10076.1
9910.66
9616.77
9220.43
9044.96
9073.74
9354.29
17355.5
16776.4
16108.9
15529.7
15003.1
14521.2
14082.8
13687.1
13337.2
13034
12780.4
12569
12375.8
12148.4
11798.2
11239.4
10482.9
9600.86
9340.18
9447.95
22353.6
21533.3
20654.2
19848.4
19088
18373.7
17699.3
17070.1
16483.3
15951.4
15480.9
15088.9
14766
14476.6
14098.3
13440.2
12350.9
11131.8
10020.3
9411.2
27393
26360.6
25244.3
24200.8
23216.2
22283
21395.5
20548.6
19740.3
18978.6
18284
17689.8
17239
16939.3
16698.5
16279.6
15342.7
13528.8
11669.3
9938.07
32507.1
31202.8
29842.2
28560.9
27365.7
26233.3
25162.8
24124.2
23121
22137
21205.2
20357.3
19694.3
19300.9
19241.5
19365.2
19142.5
17958.4
15066.7
11005.9
37615.6
36056.3
34418.9
32907.4
31509
30212.1
28984.8
27805.2
26641.1
25479.9
24308.7
23164.5
22127.8
21383
21200.5
21834.4
23145.8
23479.2
20517.2
13454.9
42727.7
40815.1
38921.3
37191.8
35613.5
34178.2
32837.7
31572.3
30325.3
29070.3
27744.5
26333.2
24829.1
23369.2
22303.7
22363.7
24232.5
27067.8
27005.2
17831.9
47873.5
45374.5
43255.3
41329.1
39600.1
38041.3
36637.6
35347.3
34136.5
32931.1
31654.4
30177.8
28365.2
26073.4
23318.9
20595.3
19217.1
21254.3
24616.6
20137.7
52567.9
49607.5
47277.4
45171.5
43277.8
41599.3
40151
38917.9
37875.6
36953.5
36053.7
35000.1
33531
31207.8
27327.5
20852.1
10628.2
-4011.35
-17810
379.684
-8661.7
-10495.5
-12902.1
-16232.3
-20119.7
-24115.1
-27709.5
-30329.9
-31422.4
-29970.3
-4572.61
-6156.32
-8282.5
-11289.1
-14898.7
-18774.4
-22522.9
-25698.4
-27969.5
-27838.1
-786.704
-2213.02
-4194.01
-7043.66
-10541.8
-14414.6
-18329.6
-21929
-24876.2
-25576.6
2777.02
1480.22
-351.002
-3020.66
-6351.38
-10114.7
-14036.6
-17820.2
-21207.1
-22563.1
6194.11
5028.88
3348.72
871.619
-2255.07
-5843.48
-9666.41
-13500.3
-17103.6
-19037.9
9555.87
8502.71
6968.8
4685.07
1774.19
-1606.25
-5266.16
-9025.44
-12717.2
-15010.7
12914.8
11974.5
10575.1
8472.94
5771.68
2608.86
-855.754
-4496.92
-8161.2
-10707.5
16330.3
15481.3
14205.1
12270
9767.57
6819.68
3556.43
78.1408
-3496.95
-6144.03
19828
19073.5
17907.1
16121.7
13801
11052.2
7985.39
4680.33
1250.97
-1455.2
23449
22768.7
21702.7
20053.4
17897.5
15331.6
12454
9334.69
6051.03
3385.06
27209.4
26610.2
25632.9
24103.6
22092
19689.7
16984.8
14026.2
10892.1
8271.56
31144.7
30607.5
29711.6
28290.2
26407.4
24151.1
21594.3
18784.1
15787.8
13262.7
35272
34805.7
33980.2
32650.8
30877.7
28741.6
26310.1
23632.3
20779.8
18306.7
39631.7
39214.4
38451.8
37201.6
35521.9
33485.4
31166.7
28614
25874.7
23479.5
44245.9
43887.6
43174.9
41986.7
40376.7
38419.9
36192.6
33736.3
31085.4
28703.4
49185.1
48851.5
48173.2
47032.2
45471.3
43573
41406.6
39012.4
36408.9
34022.9
54477.9
54162.2
53506.3
52389.7
50850.3
48968.4
46820.9
44439.3
41853.7
39368.8
60190.8
59872.4
59236.5
58121.6
56564.7
54648.3
52453.2
50017.4
47365.8
44796.4
66160.4
65989.2
65373.3
64226.4
62606.2
60596.8
58274.7
55693.7
52838.5
50296.6
72044.5
72675.9
71995.5
70738.3
69004.9
66831.6
64259.8
61326.2
58184.4
55449.8
)
;

boundaryField
{
    left
    {
        type            symmetryPlane;
    }
    right
    {
        type            calculated;
        value           nonuniform List<scalar> 
30
(
10000.1
10001.8
10004.9
10008.9
10013.3
10017.3
10020.3
10022
10022.5
10016.9
10005.7
10000
10000
10000
10000
10000
10000
10000
10000
10000
10000
10000
10000
10000
10000
10000
10000
10000
10000
9994.85
)
;
    }
    down
    {
        type            symmetryPlane;
    }
    up
    {
        type            calculated;
        value           nonuniform List<scalar> 
30
(
71865.5
72453
71770.1
70514.1
68781.9
66611.7
64045.5
61117.5
57981.8
55259
52398.6
49458.1
47132.4
45033.1
43142.5
41470.1
40022.3
38790.9
37742.9
36816.3
35905.4
34845.9
33373.8
31073.6
27292.3
21119.9
11657.8
-1511.48
-14521.8
-2842.93
)
;
    }
    hole
    {
        type            calculated;
        value           nonuniform List<scalar> 
20
(
14175.7
-629.625
-19239.9
-40430.6
-62714.7
-84284.4
-103008
-117484
-126533
-129609
309.197
2976.97
7971.34
14412.9
21240.2
26989.3
30939.7
32399
30264.9
24516.3
)
;
    }
    frontAndBack
    {
        type            empty;
    }
}


// ************************************************************************* //
