/*--------------------------------*- C++ -*----------------------------------*\
  =========                 |
  \\      /  F ield         | OpenFOAM: The Open Source CFD Toolbox
   \\    /   O peration     | Website:  https://openfoam.org
    \\  /    A nd           | Version:  dev
     \\/     M anipulation  |
\*---------------------------------------------------------------------------*/
FoamFile
{
    version     2.0;
    format      ascii;
    class       volScalarField;
    location    "60";
    object      sigmayy;
}
// * * * * * * * * * * * * * * * * * * * * * * * * * * * * * * * * * * * * * //

dimensions      [1 -1 -2 0 0 0 0];

internalField   nonuniform List<scalar> 
1000
(
-4420.94
18024.9
32626
39992.2
43496.7
44660.1
44386.1
43078.6
40988.9
39438.3
-13228.6
9385.91
23745.7
31693.3
35846.5
37827.7
38241.3
37780.1
36758.6
36864.4
-18877.6
1655.84
15083.8
22706.2
27208.1
29747.8
30956.8
31363.6
31286.8
32157.9
-20862.3
-4564.8
6313.64
13220.6
17707.8
20694.3
22518.7
23626.6
24326.9
25686.5
-20319.1
-9781.37
-1807.72
3767.49
7965.69
11110.8
13413.4
15120.9
16403.6
18108.8
-17579.2
-13465.6
-9164.38
-5055.55
-1400.23
1773.37
4369.26
6501.13
8287.63
10262.3
-13846.4
-15972.1
-15055.5
-12611.4
-9617.78
-6614.85
-3855.42
-1395.24
752.202
2924.04
-10001.3
-17282.8
-19326.5
-18408.3
-16127.2
-13360.3
-10556.1
-7906.42
-5474.7
-3149.66
-6717.49
-17474.8
-21861.4
-22173.2
-20551.7
-18048.8
-15261.8
-12476.8
-9855.03
-7435.88
-4776.3
-17295.4
-22799
-23832.3
-22550.2
-20197.2
-17409.7
-14571.4
-11846.8
-9285.81
158545
117128
89972.5
71578.8
58484.6
48708.3
41057.6
34754.7
29347.8
24541.9
154018
114172
89334
72266.8
59884.6
50491.1
43030.3
36834.3
31451.9
26623.1
143075
108767
87177.2
72090.9
60876.5
52200.8
45176.5
39247.6
34021.4
29265
126536
100646
83843
71396.4
61839.1
54203.3
47857.4
42367.4
37425.5
32824.1
106916
90216.8
78913.9
69867.5
62370.5
56066.2
50606
45727.8
41212.1
36853
84077.3
77413.2
72449.7
67150.9
62046.8
57299.3
52913.7
48811.9
44864.9
40850.3
62227.3
63903.3
64647.2
63247.8
60621.8
57518.7
54290.3
51063.7
47825.2
44238
41874.5
50300.5
56588.1
58556.2
58134.7
56494.1
54342.9
51981.4
49442.7
46285.2
23250.5
38297.3
48576.7
53176.5
54486.9
54053.9
52766.8
51048.6
48999.1
46381.2
8002.19
27448.4
40700.2
47087.1
49706.4
50145.4
49459.3
47943.8
46459.1
44016.5
20202.4
16086.5
12289.4
8715.39
5276.31
1877.5
-1532.34
-5011.95
-8584.38
-12291.1
-16142
-20173.3
-24386.7
-28827.6
-33507.3
-38482.7
-43779.1
-49503
-55494
-61396.8
22067.5
17691.8
13724.8
10013.7
6442.39
2936.54
-576.965
-4132.52
-7780.22
-11534.4
-15436.4
-19491.3
-23741.2
-28191.3
-32893
-37861.5
-43171.9
-48899.2
-55092.5
-61907.4
24516.5
19856.3
15723
11844.2
8108.54
4449.09
799.954
-2872.57
-6616.65
-10449.1
-14411.3
-18513.1
-22796.4
-27271.9
-31991.1
-36976.2
-42309.4
-48078.7
-54341.9
-61156.4
27852.2
22873.7
18566.2
14489.8
10544.7
6680.14
2844.29
-993.158
-4875.13
-8822.49
-12874.9
-17049
-21387.2
-25908.9
-30664.3
-35686.2
-41055.6
-46858.8
-53129
-59863.1
31665.8
26436.1
22017.9
17769.1
13613.1
9524.62
5475.71
1442.44
-2608.07
-6701.31
-10871.9
-15145.8
-19561
-24149.3
-28959.7
-34035.9
-39447.6
-45275.7
-51523.1
-58140.5
35514.7
30213.1
25816.3
21476
17147.7
12854.4
8589.3
4351.55
110.866
-4147.74
-8464.05
-12858
-17377.5
-22049.2
-26931.4
-32062.9
-37524.9
-43364.4
-49590.2
-56017.6
38875.6
33803.4
29615.4
25318.6
20896.6
16462.3
12004.6
7585.89
3148.04
-1272.66
-5755.84
-10273.6
-14920.2
-19672.9
-24642.7
-29808.5
-35296.6
-41097.1
-47302.9
-53468.3
41223.4
36740.5
33120
28969.9
24687.2
20125.6
15630.2
10982.2
6456.88
1789.59
-2768.33
-7515.09
-12199.1
-17150.4
-22093.3
-27391.8
-32731.7
-38564.6
-44378.4
-50910.9
42145.5
39109.6
36156.1
32578.1
28407
24020.3
19367.4
14711.6
9916.88
5188.6
331.435
-4467.08
-9444.27
-14399.1
-19603.4
-24805.8
-30291.6
-35656
-41601.1
-48459.6
40358.4
39140.9
37226.1
34412.8
30811.1
26745.3
22268
17629.4
12789
7930.8
2938.3
-2034.89
-7157.68
-12271.1
-17575.3
-22860.2
-28272.9
-33484.4
-39222.9
-45944.7
39041.1
37285.5
35522
33003.1
29932.1
26182.2
22129.7
17666.6
13118
8310.06
3523.41
-1477.55
-6419.95
-11585
-16676.3
-21996.5
-27070.7
-32213.9
-37316.5
-43260.9
37665.6
35369.3
33543.9
31317
28512.2
25163.9
21371
17247.4
12876.4
8332.97
3653.35
-1124.99
-5995.51
-10934.4
-15947.7
-21007.3
-26012.8
-30742.9
-35514.9
-40458.8
35572.4
33598.2
31763.9
29617.5
27035
23976.3
20506.9
16690.2
12613.6
8326.23
3886.9
-684.431
-5351.06
-10107.4
-14924.7
-19789.8
-24584.2
-29188.8
-33499.2
-37611.8
32792.7
31390.3
29765
27775.2
25387.7
22593
19413.1
15904.7
12120.4
8118.82
3937.98
-382.531
-4822.07
-9350.59
-13954.6
-18597.4
-23191.5
-27521.8
-31569.4
-35106.6
29791.7
28922.8
27594.3
25822.8
23653.5
21104.5
18201
14982.1
11492.4
7776.48
3873.2
-184.638
-4370.5
-8659.29
-13028.4
-17439.1
-21800.2
-25981.3
-29753.7
-32958.9
26795.6
26331.8
25305.4
23788.1
21856.7
19555
16916.5
13977.1
10773.5
7344.04
3722.24
-61.3329
-3982.26
-8016.19
-12140.9
-16323.1
-20486.9
-24451.4
-28129.8
-31278.8
23880
23737.7
22969.1
21701.5
20014.2
17961.1
15583.1
12915.7
9992.55
6846.62
3508.32
4.53468
-3641.99
-7410.94
-11284.1
-15233.2
-19192.9
-23078.1
-26687.2
-29908
21134.5
21198
20636
19595.7
18144.4
16336.8
14215
11814.6
9166.73
6301.12
3245.1
23.3025
-3343.5
-6838.73
-10450.9
-14170.6
-17965.3
-21717.2
-25402.1
-28880
18565.1
18765.3
18352.2
17503.9
16270.2
14698
12826.4
10687.7
8310.07
5719.67
2941.33
-1.56709
-3088.5
-6305.05
-9648.27
-13123.6
-16725.7
-20456.9
-24213.7
-27994.7
16187.6
16442.9
16139.1
15450.5
14412.7
13062.7
11432.8
9549.74
7436.5
5114.49
2605.3
-68.2412
-2883.5
-5823.99
-8888.4
-12105.2
-15517.4
-19121.2
-23042.4
-27275.7
13965.9
14247.1
14014.3
13455.1
12591.3
11449.3
10051.5
8417.82
6562.85
4501.67
2249.41
-172.37
-2738.45
-5421.46
-8212.9
-11139.8
-14276.3
-17779.5
-21767
-26504.5
11908.5
12164.1
11981
11528.9
10821.7
9873.12
8699.21
7307.9
5707.44
3899.8
1892.66
-302.022
-2654.61
-5124.52
-7669.51
-10299.7
-13098.6
-16257.7
-20304.4
-25604.3
9973.04
10197.1
10041.7
9678.97
9112.78
8345.74
7386.93
6233.44
4886.17
3331.12
1563.3
-425.746
-2611.63
-4945.08
-7333
-9698.29
-12052.2
-14743.4
-18401.3
-24219.5
8150.53
8319.62
8184.41
7906.34
7464.86
6873.89
6115.83
5202.17
4103.24
2814.29
1285.11
-496.942
-2563.88
-4846.4
-7234.1
-9478.13
-11388.1
-13208.3
-16134.6
-21857.7
6401.98
6524.08
6409.91
6200.62
5880.94
5445.8
4885.76
4196.83
3357.22
2338.81
1083.76
-471.97
-2398.19
-4703.3
-7265.9
-9674.49
-11426.9
-12387.6
-13247.5
-17660.7
4737.2
4794.05
4711.3
4558.04
4357.12
4052.82
3684.37
3197
2624.81
1878.16
947.769
-326.732
-2015.77
-4312.26
-7145.74
-10152.6
-12415.4
-12528.9
-10686.9
-10277.9
3114.81
3148.28
3074.14
2996.16
2873.65
2706.59
2476.97
2198.1
1843.32
1398.55
783.857
-92.4066
-1423.73
-3443.21
-6353.11
-10102.2
-13725.1
-14937.9
-9469.75
1492.21
1577.1
1602.01
1563.2
1550.88
1493.42
1432.29
1315.2
1202.92
1032.54
849.299
543.28
99.921
-708.702
-2086.23
-4510.37
-8503.26
-14097
-18396.3
-11993.5
17353.6
349.692
300.987
323.889
334.613
348.367
334.141
325.312
296.685
283.36
245.171
198.213
66.9679
-202.791
-810.624
-2196.6
-5207.1
-10987
-18415.3
-16553
31591.4
-542.863
-559.976
-516.645
-487.667
-452.99
-433.418
-400.56
-375.687
-328.266
-284.691
-216.043
-156.102
-91.5825
-88.3794
-291.338
-1079.18
-3199.67
-7441.88
-9360.88
11569.4
-7124.63
-5402.9
-1347.67
4456.07
11489.8
19102.7
26533.5
33008.9
37725.6
40568.9
-5303.41
-3801.95
-208.591
4942.4
11211.6
18055.7
24854.1
30941.1
35511.8
38495.5
-3748.14
-2524.81
457.103
4754
10022.7
15846.9
21751
27203.9
31574.8
34906.1
-2369.39
-1367.37
1108.69
4689.16
9102.03
14028.6
19101.3
23909.8
27983
31408
-1160.23
-336.704
1716.76
4689.87
8371.53
12514.1
16838.5
21030.8
24759.4
28066.2
-115.302
557.626
2257
4718.24
7775.61
11239.7
14901.1
18528.3
21879.3
24953.2
767.603
1316.83
2719.24
4749.4
7276.99
10158.4
13238.2
16341.5
19296.4
22057.3
1487.89
1934.94
3089.22
4757.82
6837.81
9221.49
11792.6
14422.7
16987.4
19414.4
2052.89
2418.27
3365.99
4731.33
6433.35
8390.92
10518.9
12722
14913.5
16995.5
2460.8
2757.68
3536.9
4650.12
6033.55
7627.74
9371.74
11197.9
13041
14799.7
2731.85
2972.38
3610.91
4511.83
5625.92
6908.35
8320.46
9810.17
11330.9
12779.5
2853.34
3054.88
3575.66
4300.36
5185.53
6204.2
7328.3
8524.09
9750.62
10923.5
2850
3017.98
3438.1
4015.02
4704.34
5497.8
6370.93
7306.75
8268.46
9182.47
2689.42
2827.72
3176.32
3626.22
4158.12
4753.82
5417.38
6120.62
6847.64
7539.66
2370.33
2493.6
2781.81
3128.89
3524.24
3955.53
4435.35
4938.01
5459.18
5953.44
1857.77
1989.05
2227.21
2496.67
2771.13
3077.47
3394.01
3736.96
4083.23
4421.78
1187.04
1317.93
1517.72
1708.39
1896.8
2092.31
2292.53
2503.69
2718.81
2917
478.47
621.336
771.247
883.978
1000.79
1107.3
1218.3
1329.62
1442.72
1542.25
-334.91
-139.709
-46.0315
15.6558
80.7972
143.897
205.827
287.824
351.963
408.45
-972.646
-844.913
-818.504
-790.681
-752.337
-711.837
-670.983
-624.59
-575.332
-532.517
)
;

boundaryField
{
    left
    {
        type            symmetryPlane;
    }
    right
    {
        type            calculated;
        value           nonuniform List<scalar> 
30
(
-61227.5
-61697.9
-60940.8
-59646.9
-57926.1
-55805.1
-53243.7
-50647.5
-48197.7
-45681
-43043.8
-40250.7
-37462.5
-34958.5
-32853.8
-31153.4
-29810.5
-28747.8
-27883.5
-27119.1
-26364.5
-25410.6
-24053.9
-21681
-17642.1
-10579.7
455.752
15004.1
28550.1
14453.9
)
;
    }
    down
    {
        type            symmetryPlane;
    }
    up
    {
        type            calculated;
        value           nonuniform List<scalar> 
30
(
-1569.16
-1587.93
-1569.91
-1537.83
-1495.74
-1444.75
-1385.53
-1320.19
-1250.39
-1168.79
-1107.22
-1058.03
-999.968
-949.086
-903.967
-864.305
-829.618
-798.98
-770.677
-742.261
-710.315
-670.211
-615.677
-535.846
-408.615
-186.612
232.016
891.003
1599.79
827.33
)
;
    }
    hole
    {
        type            calculated;
        value           nonuniform List<scalar> 
20
(
-10138
-18089.3
-21856.1
-21835.5
-18821.9
-13848.9
-8035.37
-2610.11
1492.07
3623.05
155742
150849
139181
121915
101475
78274.6
55993.8
35531
16824.4
1746.4
)
;
    }
    frontAndBack
    {
        type            empty;
    }
}


// ************************************************************************* //
